# vtk DataFile Version 3.0
Advection Initial Condition
ASCII
DATASET UNSTRUCTURED_GRID
POINTS 13464 float
0 0 0
1 0 0
1 1 0
0 1 0
0.01 0 0
0.02 0 0
0.03 0 0
0.04 0 0
0.05 0 0
0.06 0 0
0.07 0 0
0.08 0 0
0.09 0 0
0.1 0 0
0.11 0 0
0.12 0 0
0.13 0 0
0.14 0 0
0.15 0 0
0.16 0 0
0.17 0 0
0.18 0 0
0.19 0 0
0.2 0 0
0.21 0 0
0.22 0 0
0.23 0 0
0.24 0 0
0.25 0 0
0.26 0 0
0.27 0 0
0.28 0 0
0.29 0 0
0.3 0 0
0.31 0 0
0.32 0 0
0.33 0 0
0.34 0 0
0.35 0 0
0.36 0 0
0.37 0 0
0.38 0 0
0.39 0 0
0.4 0 0
0.41 0 0
0.42 0 0
0.43 0 0
0.44 0 0
0.45 0 0
0.46 0 0
0.47 0 0
0.48 0 0
0.49 0 0
0.5 0 0
0.51 0 0
0.52 0 0
0.53 0 0
0.54 0 0
0.55 0 0
0.56 0 0
0.57 0 0
0.58 0 0
0.59 0 0
0.6 0 0
0.61 0 0
0.62 0 0
0.63 0 0
0.64 0 0
0.65 0 0
0.66 0 0
0.67 0 0
0.68 0 0
0.69 0 0
0.7 0 0
0.71 0 0
0.72 0 0
0.73 0 0
0.74 0 0
0.75 0 0
0.76 0 0
0.77 0 0
0.78 0 0
0.79 0 0
0.8 0 0
0.81 0 0
0.82 0 0
0.83 0 0
0.84 0 0
0.85 0 0
0.86 0 0
0.87 0 0
0.88 0 0
0.89 0 0
0.9 0 0
0.91 0 0
0.92 0 0
0.93 0 0
0.94 0 0
0.95 0 0
0.96 0 0
0.97 0 0
0.98 0 0
0.99 0 0
1 0.01 0
1 0.02 0
1 0.03 0
1 0.04 0
1 0.05 0
1 0.06 0
1 0.07 0
1 0.08 0
1 0.09 0
1 0.1 0
1 0.11 0
1 0.12 0
1 0.13 0
1 0.14 0
1 0.15 0
1 0.16 0
1 0.17 0
1 0.18 0
1 0.19 0
1 0.2 0
1 0.21 0
1 0.22 0
1 0.23 0
1 0.24 0
1 0.25 0
1 0.26 0
1 0.27 0
1 0.28 0
1 0.29 0
1 0.3 0
1 0.31 0
1 0.32 0
1 0.33 0
1 0.34 0
1 0.35 0
1 0.36 0
1 0.37 0
1 0.38 0
1 0.39 0
1 0.4 0
1 0.41 0
1 0.42 0
1 0.43 0
1 0.44 0
1 0.45 0
1 0.46 0
1 0.47 0
1 0.48 0
1 0.49 0
1 0.5 0
1 0.51 0
1 0.52 0
1 0.53 0
1 0.54 0
1 0.55 0
1 0.56 0
1 0.57 0
1 0.58 0
1 0.59 0
1 0.6 0
1 0.61 0
1 0.62 0
1 0.63 0
1 0.64 0
1 0.65 0
1 0.66 0
1 0.67 0
1 0.68 0
1 0.69 0
1 0.7 0
1 0.71 0
1 0.72 0
1 0.73 0
1 0.74 0
1 0.75 0
1 0.76 0
1 0.77 0
1 0.78 0
1 0.79 0
1 0.8 0
1 0.81 0
1 0.82 0
1 0.83 0
1 0.84 0
1 0.85 0
1 0.86 0
1 0.87 0
1 0.88 0
1 0.89 0
1 0.9 0
1 0.91 0
1 0.92 0
1 0.93 0
1 0.94 0
1 0.95 0
1 0.96 0
1 0.97 0
1 0.98 0
1 0.99 0
0.99 1 0
0.98 1 0
0.97 1 0
0.96 1 0
0.95 1 0
0.94 1 0
0.93 1 0
0.92 1 0
0.91 1 0
0.9 1 0
0.89 1 0
0.88 1 0
0.87 1 0
0.86 1 0
0.85 1 0
0.84 1 0
0.83 1 0
0.82 1 0
0.81 1 0
0.8 1 0
0.79 1 0
0.78 1 0
0.77 1 0
0.76 1 0
0.75 1 0
0.74 1 0
0.73 1 0
0.72 1 0
0.71 1 0
0.7 1 0
0.69 1 0
0.68 1 0
0.67 1 0
0.66 1 0
0.65 1 0
0.64 1 0
0.63 1 0
0.62 1 0
0.61 1 0
0.6 1 0
0.59 1 0
0.58 1 0
0.57 1 0
0.56 1 0
0.55 1 0
0.54 1 0
0.53 1 0
0.52 1 0
0.51 1 0
0.5 1 0
0.49 1 0
0.48 1 0
0.47 1 0
0.46 1 0
0.45 1 0
0.44 1 0
0.43 1 0
0.42 1 0
0.41 1 0
0.4 1 0
0.39 1 0
0.38 1 0
0.37 1 0
0.36 1 0
0.35 1 0
0.34 1 0
0.33 1 0
0.32 1 0
0.31 1 0
0.3 1 0
0.29 1 0
0.28 1 0
0.27 1 0
0.26 1 0
0.25 1 0
0.24 1 0
0.23 1 0
0.22 1 0
0.21 1 0
0.2 1 0
0.19 1 0
0.18 1 0
0.17 1 0
0.16 1 0
0.15 1 0
0.14 1 0
0.13 1 0
0.12 1 0
0.11 1 0
0.1 1 0
0.09 1 0
0.08 1 0
0.07 1 0
0.06 1 0
0.05 1 0
0.04 1 0
0.03 1 0
0.02 1 0
0.01 1 0
0 0.99 0
0 0.98 0
0 0.97 0
0 0.96 0
0 0.95 0
0 0.94 0
0 0.93 0
0 0.92 0
0 0.91 0
0 0.9 0
0 0.89 0
0 0.88 0
0 0.87 0
0 0.86 0
0 0.85 0
0 0.84 0
0 0.83 0
0 0.82 0
0 0.81 0
0 0.8 0
0 0.79 0
0 0.78 0
0 0.77 0
0 0.76 0
0 0.75 0
0 0.74 0
0 0.73 0
0 0.72 0
0 0.71 0
0 0.7 0
0 0.69 0
0 0.68 0
0 0.67 0
0 0.66 0
0 0.65 0
0 0.64 0
0 0.63 0
0 0.62 0
0 0.61 0
0 0.6 0
0 0.59 0
0 0.58 0
0 0.57 0
0 0.56 0
0 0.55 0
0 0.54 0
0 0.53 0
0 0.52 0
0 0.51 0
0 0.5 0
0 0.49 0
0 0.48 0
0 0.47 0
0 0.46 0
0 0.45 0
0 0.44 0
0 0.43 0
0 0.42 0
0 0.41 0
0 0.4 0
0 0.39 0
0 0.38 0
0 0.37 0
0 0.36 0
0 0.35 0
0 0.34 0
0 0.33 0
0 0.32 0
0 0.31 0
0 0.3 0
0 0.29 0
0 0.28 0
0 0.27 0
0 0.26 0
0 0.25 0
0 0.24 0
0 0.23 0
0 0.22 0
0 0.21 0
0 0.2 0
0 0.19 0
0 0.18 0
0 0.17 0
0 0.16 0
0 0.15 0
0 0.14 0
0 0.13 0
0 0.12 0
0 0.11 0
0 0.1 0
0 0.09 0
0 0.08 0
0 0.07 0
0 0.06 0
0 0.05 0
0 0.04 0
0 0.03 0
0 0.02 0
0 0.01 0
0.5 0.5 0
0.707815 0.707531 0
0.292887 0.707113 0
0.707113 0.292887 0
0.292887 0.292887 0
0.5 0.780327 0
0.221447 0.501242 0
0.782003 0.500495 0
0.499493 0.219716 0
0.82831 0.828494 0
0.171359 0.82839 0
0.828641 0.17161 0
0.17161 0.171359 0
0.566949 0.640164 0
0.358209 0.566468 0
0.64152 0.43305 0
0.432432 0.359233 0
0.639636 0.845784 0
0.154216 0.639636 0
0.845784 0.360364 0
0.360364 0.154216 0
0.846252 0.642411 0
0.360759 0.845694 0
0.639241 0.154306 0
0.154306 0.360759 0
0.441662 0.668176 0
0.680596 0.579893 0
0.333933 0.442748 0
0.55875 0.333805 0
0.53495 0.887439 0
0.112561 0.53495 0
0.887439 0.46505 0
0.46505 0.112561 0
0.738976 0.892424 0
0.109132 0.738543 0
0.890868 0.261457 0
0.261457 0.109132 0
0.89146 0.738978 0
0.738978 0.10854 0
0.261022 0.890899 0
0.10854 0.261022 0
0.600697 0.742979 0
0.256126 0.602747 0
0.742877 0.396546 0
0.397253 0.256126 0
0.598159 0.525059 0
0.899605 0.100427 0
0.100427 0.100395 0
0.899664 0.899359 0
0.100437 0.899672 0
0.384118 0.748473 0
0.615882 0.251527 0
0.251527 0.384118 0
0.438796 0.904141 0
0.904141 0.561204 0
0.0958586 0.438796 0
0.561204 0.0958586 0
0.741739 0.795752 0
0.203825 0.739371 0
0.795752 0.258261 0
0.260629 0.203825 0
0.800134 0.71975 0
0.279639 0.799926 0
0.720361 0.200074 0
0.200074 0.279639 0
0.490917 0.588311 0
0.410532 0.490389 0
0.549834 0.424135 0
0.756491 0.628635 0
0.355922 0.653164 0
0.695682 0.496168 0
0.6437 0.347256 0
0.346411 0.355971 0
0.818082 0.916789 0
0.0832109 0.818082 0
0.916789 0.181918 0
0.181918 0.0832109 0
0.818082 0.0832109 0
0.916789 0.818082 0
0.0832109 0.181918 0
0.181918 0.916789 0
0.51661 0.699305 0
0.647948 0.656435 0
0.300695 0.51661 0
0.48601 0.299061 0
0.609452 0.921358 0
0.0786424 0.609452 0
0.921358 0.390548 0
0.392825 0.0795219 0
0.921498 0.665494 0
0.665494 0.0785018 0
0.334506 0.921498 0
0.0785018 0.334506 0
0.436114 0.82641 0
0.825764 0.56416 0
0.17359 0.436114 0
0.563886 0.17359 0
0.461055 0.432531 0
0.567744 0.817481 0
0.182519 0.567744 0
0.817283 0.432581 0
0.432256 0.182519 0
0.666826 0.776173 0
0.223628 0.667513 0
0.776393 0.331925 0
0.331925 0.223607 0
0.678412 0.929724 0
0.0702759 0.678412 0
0.929724 0.321588 0
0.321588 0.0702759 0
0.747425 0.561162 0
0.421811 0.599125 0
0.501366 0.373005 0
0.450523 0.733608 0
0.266392 0.450523 0
0.550687 0.268546 0
0.613114 0.588451 0
0.394502 0.416405 0
0.551314 0.566727 0
0.449732 0.542464 0
0.493547 0.934787 0
0.0652132 0.493547 0
0.934787 0.506453 0
0.506453 0.0652132 0
0.494662 0.840285 0
0.158657 0.494613 0
0.840992 0.50578 0
0.505338 0.159715 0
0.700644 0.843377 0
0.156623 0.700644 0
0.843377 0.299356 0
0.299356 0.156623 0
0.838112 0.769229 0
0.231091 0.838048 0
0.768909 0.161952 0
0.161952 0.231091 0
0.322633 0.756401 0
0.677367 0.243599 0
0.243599 0.322633 0
0.29742 0.647024 0
0.701409 0.350073 0
0.353147 0.297975 0
0.940687 0.60793 0
0.60793 0.0593126 0
0.392422 0.940009 0
0.0599913 0.392422 0
0.599389 0.389577 0
0.69969 0.437711 0
0.557181 0.482754 0
0.941133 0.0588675 0
0.0588675 0.0588675 0
0.941133 0.941133 0
0.0588675 0.941133 0
0.554774 0.942075 0
0.0579249 0.554774 0
0.942075 0.445226 0
0.445226 0.0579249 0
0.766326 0.942547 0
0.0574528 0.766326 0
0.942547 0.233674 0
0.233674 0.0574528 0
0.942237 0.76507 0
0.76507 0.0577627 0
0.23493 0.942237 0
0.0577627 0.23493 0
0.773134 0.843175 0
0.156825 0.773134 0
0.843175 0.226866 0
0.226866 0.156825 0
0.852957 0.696612 0
0.303775 0.852085 0
0.696225 0.147915 0
0.147915 0.303775 0
0.650026 0.711272 0
0.510082 0.644072 0
0.356971 0.510064 0
0.570493 0.69579 0
0.301671 0.57096 0
0.702823 0.650684 0
0.427882 0.304159 0
0.546897 0.747732 0
0.252268 0.546897 0
0.45381 0.252271 0
0.866488 0.944389 0
0.0556107 0.866488 0
0.944389 0.133512 0
0.133512 0.0556107 0
0.867008 0.0555105 0
0.94449 0.867008 0
0.0555105 0.132992 0
0.132992 0.94449 0
0.652639 0.533537 0
0.393807 0.693359 0
0.306051 0.393408 0
0.606592 0.306051 0
0.753167 0.451843 0
0.586285 0.868133 0
0.131867 0.586285 0
0.868133 0.413715 0
0.413715 0.131867 0
0.749488 0.74398 0
0.256203 0.750384 0
0.743797 0.249616 0
0.249616 0.256203 0
0.757408 0.68646 0
0.616924 0.795256 0
0.204744 0.616924 0
0.795732 0.382133 0
0.383076 0.204744 0
0.946456 0.712549 0
0.712549 0.0535437 0
0.287451 0.946456 0
0.0535437 0.287451 0
0.851458 0.877798 0
0.122202 0.851458 0
0.877798 0.148542 0
0.148542 0.122202 0
0.387673 0.801247 0
0.612327 0.198753 0
0.198753 0.387673 0
0.633029 0.484551 0
0.791746 0.792524 0
0.207901 0.791504 0
0.792099 0.208496 0
0.208496 0.207901 0
0.343868 0.710207 0
0.656132 0.289793 0
0.289793 0.343868 0
0.887513 0.610612 0
0.611158 0.111473 0
0.389388 0.887513 0
0.111473 0.388842 0
0.803158 0.610965 0
0.671161 0.391774 0
0.805772 0.66877 0
0.507556 0.450664 0
0.593465 0.44751 0
0.327844 0.809308 0
0.672156 0.190692 0
0.190692 0.327844 0
0.400193 0.540479 0
0.33353 0.608066 0
0.39126 0.334054 0
0.446621 0.950777 0
0.0492232 0.446621 0
0.951083 0.552868 0
0.552868 0.0489166 0
0.870744 0.805032 0
0.194968 0.870744 0
0.805063 0.12947 0
0.129256 0.194968 0
0.485204 0.888206 0
0.111794 0.485204 0
0.888206 0.514796 0
0.514796 0.111794 0
0.430026 0.777039 0
0.222961 0.430026 0
0.57047 0.223053 0
0.670884 0.881706 0
0.118294 0.670884 0
0.881706 0.329116 0
0.329116 0.118294 0
0.456729 0.480952 0
0.510836 0.546674 0
0.719844 0.952682 0
0.0473179 0.719844 0
0.952682 0.280156 0
0.280156 0.0473179 0
0.37799 0.457716 0
0.639714 0.95297 0
0.0470304 0.639714 0
0.95297 0.360286 0
0.36118 0.0449828 0
0.705228 0.542661 0
0.40271 0.641162 0
0.460208 0.624348 0
0.547295 0.377958 0
0.72282 0.600042 0
0.808166 0.872713 0
0.127287 0.808166 0
0.872713 0.191834 0
0.191834 0.127287 0
0.705057 0.752126 0
0.24915 0.704356 0
0.75085 0.295644 0
0.295644 0.24915 0
0.855154 0.107017 0
0.893186 0.85575 0
0.107017 0.144846 0
0.14425 0.893186 0
0.613388 0.684847 0
0.353879 0.401572 0
0.737539 0.511787 0
0.550277 0.526663 0
0.471821 0.341188 0
0.515182 0.331504 0
0.787619 0.54228 0
0.37854 0.605987 0
0.5361 0.608958 0
0.420947 0.449504 0
0.493627 0.737656 0
0.471844 0.694631 0
0.262344 0.493627 0
0.305363 0.471841 0
0.507889 0.263138 0
0.609104 0.633197 0
0.652972 0.613247 0
0.803425 0.95661 0
0.0433896 0.803425 0
0.95661 0.196575 0
0.196575 0.0433896 0
0.957587 0.805728 0
0.805728 0.0424128 0
0.194272 0.957587 0
0.0424128 0.194272 0
0.462273 0.389697 0
0.598574 0.347341 0
0.961245 0.646627 0
[...]
CELL_DATA 26526
SCALARS sol float 1
LOOKUP_TABLE default
1.82664e-07
0.847138
0.179302
0.151157
0.00030601
2.30042e-13
0
1.30682e-17
0
0
0
0.165738
1.58343e-11
9.50134e-12
0
0
2.30373e-25
5.7375e-26
7.08263e-20
2.53526e-20
0.0043257
0.000773375
1.07186e-08
1.88109e-16
1.64168e-13
2.23247e-23
0
0.0021152
0.00193537
8.77575e-15
7.38724e-11
1.19493e-06
0.00917821
0.000144217
4.02156e-12
0
0
2.26918e-19
0
4.60691e-24
1.29408e-22
7.04126e-21
0
0
0
3.50546e-23
0.411027
0.00473241
1.50648e-11
4.63688e-19
0
2.71303e-45
0
0
1.97227e-12
5.1844e-27
5.78873e-22
4.69822e-13
0
2.62722e-25
0
0.000468511
0.000277245
0.2974
0.171012
7.66897e-15
1.64375e-15
3.96586e-15
0
0
2.24685e-25
4.97684e-25
0
0
1.2725e-11
3.21319e-18
1.50962e-18
0
0
1.39736e-05
0.000174861
7.5674e-11
0
1.58913e-18
2.39776e-19
0.242406
0.0121427
6.09791e-11
0.000987932
9.84872e-16
1.00338e-17
8.74035e-10
0.000369601
7.05492e-08
1.83361e-10
5.76179e-06
0.270869
5.52605e-22
0
2.94257e-19
1.3123e-19
0
0
0
1.85197e-35
3.99605e-36
0
0.312614
0.322251
1.70374e-18
0
1.65211e-18
0
3.50551e-21
2.24711e-21
0
0
5.80517e-07
0.702799
2.71708e-13
0
7.90155e-26
0
0.000509202
3.39878e-18
0
4.11352e-23
0
0.398626
2.92983e-20
0
0
0
0.0104855
0.578993
0.000482078
7.69175e-05
1.46503e-16
0
0
3.94581e-35
0.00181152
1.7971e-10
3.61571e-10
0
8.01075e-23
0
0
4.25505e-10
0
5.42032e-26
1.38292e-14
0.687184
0.00536646
0.00384084
3.89734e-08
0.0233487
6.01038e-08
9.47524e-21
0
6.06068e-14
5.46004e-17
5.01696e-09
0.0743207
0.0763568
3.54139e-09
4.32648e-12
0
8.76922e-26
2.0138e-20
4.29973e-13
1.91747e-17
0
0
5.95335e-13
0
5.47116e-15
0
0.00270158
0.000139141
0.270522
0.460618
1.01491e-05
0.000169166
1.34186e-13
0
2.00166e-16
0
0.0338724
0
1.26374e-12
1.02942e-27
2.03674e-22
0
0.0637059
7.22116e-14
5.47253e-17
1.4686e-08
1.18686e-19
0
8.88751e-23
0
3.25138e-08
1.99874e-05
4.80005e-18
7.92507e-17
0
1.88043e-29
0
0.601573
0.000178334
8.02032e-10
1.10268e-09
2.36597e-10
2.15786e-10
9.21874e-17
3.60462e-17
2.62546e-09
0.000141521
4.61171e-31
0
1.22387e-18
0
4.55106e-10
3.65382e-21
0
0
9.42189e-07
2.73521e-18
6.80791e-23
0
0
0
0.884736
1.34694e-15
0
1.3077e-30
0
7.73559e-05
3.21775e-05
2.44629e-12
0
0
2.21935e-06
1.47516e-22
0
0
0
1.32022e-16
4.53623e-19
6.15758e-20
0
0
0
5.63522e-13
0
4.03944e-23
0
0.00125396
0.00149859
0.000158795
0.000493652
2.36452e-15
1.1297e-17
2.40053e-09
0.44013
0.411053
5.03441e-21
0
4.88513e-36
0
2.45303e-09
0.00296009
1.61721e-12
0
0
4.63893e-21
0.0333992
3.44778e-05
0
6.66068e-21
2.21022e-18
0.811781
0.00340617
4.8189e-20
0
0
3.07713e-33
9.83168e-19
0
3.03011e-32
0
0.00063118
1.10808e-05
6.46037e-08
0.856347
4.63733e-07
2.31018e-10
4.19366e-09
6.45455e-25
1.13344e-24
0
0
0.00189167
1.4597e-07
5.18432e-06
2.2065e-17
0
0
0
3.57754e-12
0.000715335
0.00047035
0.550593
1.12667e-20
1.02851e-20
3.76544e-15
4.8458e-15
8.38239e-10
4.68476e-10
0.000673901
6.19749e-16
3.41817e-15
0
0
0
0
2.57008e-24
1.52456e-24
0
0
0
1.56944e-05
0.010979
0.00154573
0.00180989
0.0116189
5.86117e-05
6.10946e-05
2.47348e-17
0
0
0
0.0287369
1.7478e-14
0
3.11529e-27
0
4.53843e-16
1.24564e-16
0
1.03232e-18
2.75177e-14
6.42943e-11
3.94928e-11
0
0
0
0
0.00998936
1.37565e-26
1.36637e-06
5.29228e-08
0.328665
0
0
0
1.56151e-06
4.42615e-21
0
6.02127e-36
0
0.000163777
2.83156e-17
0
0
1.06964e-17
0.120062
0.0894127
1.81308e-05
1.52491e-05
0.00718359
0.0890521
0.103456
1.87427e-06
0
0
0
1.84535e-26
1.70892e-11
1.20521e-08
0.0256872
0.135036
0.107016
0.00129387
2.25981e-07
3.05557e-07
0.00251618
0.136883
0.129056
2.60616e-11
9.79327e-32
0
2.48326e-17
3.20784e-08
1.50068e-08
0.00530295
0.302303
1.4167e-06
9.77267e-07
2.11901e-06
6.78106e-07
3.05302e-07
1.42483e-28
0
0.117307
4.79281e-13
0
0
2.57882e-19
0
5.77236e-46
0
6.61711e-08
0.000194587
1.93957e-14
1.86915e-24
0
0
1.09741e-08
2.19394e-08
0.00302124
0.00188749
6.19935e-12
0
1.23849e-21
1.74384e-20
1.91799e-07
1.09319e-06
1.62886e-09
0.0152231
0.0230255
1.0028e-05
4.29379e-06
2.16882e-12
0
0
4.17831e-20
2.35783e-08
1.75459e-18
3.52938e-18
0
0
5.01179e-31
4.12842e-30
0
0
0.279399
0.000438962
0.531103
0.638878
3.47617e-14
0
4.67207e-27
0
0.248181
9.19997e-20
0
0
1.18106e-32
0
1.38252e-21
1.51843e-12
9.19428e-06
0
0
8.14676e-23
0.00391439
8.04834e-06
0.347096
1.40076e-20
0
0
0.0219146
3.74113e-12
1.02555e-06
4.74061e-20
0
2.61704e-40
0
0.738785
0.676207
0.00340639
0.802556
3.97432e-15
0
5.62777e-29
0
0.00597835
1.65257e-08
1.36228e-09
1.00584e-11
6.02653e-06
0
6.79524e-07
5.45727e-18
0
2.60447e-44
0
0.277661
2.90457e-18
0
0.0172347
4.33502e-08
0
5.67479e-35
1.21293e-22
6.01069e-18
0
1.16788e-22
0
0.00162475
7.01892e-26
0
4.00268e-26
0
0.675329
0.739064
1.81904e-12
2.38172e-15
9.68901e-08
1.10612e-08
2.74839e-12
1.51919e-13
1.12018e-05
0.00019754
0.000126089
0.000445248
0
2.80184e-18
1.58669e-17
0
1.45199e-07
5.93418e-10
5.14497e-13
1.11079e-07
9.56304e-17
0
1.43569e-17
0
4.4568e-19
2.50726e-19
0
0
0.290337
3.57943e-05
0.000481972
0.000334647
1.05864e-05
7.05127e-09
0.0101663
1.89536e-12
7.22927e-07
1.64515e-15
0
8.71643e-12
6.68216e-10
0.00153912
0.850952
2.76471e-08
9.20537e-06
0.28313
0.290566
0.0310147
0.51035
0
1.94441e-31
6.90746e-19
0
1.5858e-06
2.42535e-06
0
2.497e-21
0
0.000956425
0
0
2.19844e-28
0
2.18805e-16
0
2.45454e-34
0
9.3364e-13
0
1.47538e-18
0
5.15383e-17
0
8.57931e-29
0
0.000375162
0.000237644
0.0939916
2.6591e-31
0
1.52112e-18
0
0
0
0
5.54266e-28
1.99303e-27
0
0
0
0
1.03025e-21
4.4446e-13
0.26294
0
0
4.46229e-22
2.04442e-22
0
0
0
0
0
0
9.49653e-17
0
1.60962e-34
0
5.33611e-14
0
5.50327e-19
0
0
1.72832e-06
5.16614e-05
9.80413e-06
4.21633e-10
0.290116
1.18454e-22
0
4.42155e-09
8.37407e-05
6.52087e-08
6.56083e-08
0.000324179
0.037778
0.3881
0.362592
3.42389e-10
1.7459e-05
0.00514456
0
1.62263e-21
0
1.00553e-32
0.852069
1.27389e-23
0
0.000554035
4.24981e-19
0
1.43716e-22
0
0.269786
1.9696e-12
0
0
0
5.30214e-28
9.83593e-28
0
0
0
0.00109072
0.00452035
0.00595884
8.47953e-05
4.73115e-08
0.011249
0.470107
0.475021
0.871177
0.000113751
2.22834e-17
0
0
0
4.30809e-12
1.31602e-13
2.6281e-07
8.67739e-19
0
3.08563e-35
0
6.39845e-14
7.83729e-17
0
6.90109e-12
0
0
0.178044
1.02441e-08
1.51667e-28
0
6.25804e-05
1.54222e-13
0
1.49815e-31
2.89486e-24
1.31467e-13
0
0
4.18314e-15
0
3.99879e-11
0.048245
0.00292722
3.9858e-05
0.0156054
0.00376909
3.9001e-24
0.802977
0.00516488
7.56338e-09
0.390717
0.000775851
0.000737877
3.15469e-06
7.60791e-07
1.53668e-10
8.0595e-09
1.54831e-09
0
2.01909e-22
4.64368e-14
0
7.36558e-19
5.20974e-19
6.37282e-09
0.0116117
0.88399
1.24162e-17
0
0
0
0.560983
7.33799e-28
5.34082e-23
0
0.00183199
5.79825e-11
0.946024
0.0714194
0.00135731
0.150066
9.15333e-07
4.91708e-06
2.55072e-06
1.78995e-18
9.18526e-08
9.51602e-10
2.54414e-11
0.00091804
9.65186e-09
0.0099547
1.28952e-17
0
0
0
0.788558
9.90722e-08
5.7396e-08
0.131399
0.15373
0
3.25633e-15
0
8.1301e-08
1.89799e-09
1.5791e-27
8.29052e-05
9.2106e-05
1.55404e-05
1.41262e-07
4.94636e-07
1.34574e-09
4.34917e-12
0
7.27582e-18
0
0.0204525
1.24423e-21
0
7.32334e-08
0.00446454
1.90825e-07
0.0704901
6.46259e-08
5.72675e-07
0.0687324
1.75133e-28
0.0251265
1.42768e-10
2.0078e-18
5.44102e-19
0
0
3.66914e-12
1.39505e-12
2.04863e-07
1.08359e-07
6.07147e-15
0
0
0.7479
2.00465e-12
2.1087e-12
0
5.23044e-29
2.75894e-21
0.000630122
0.83492
0.779363
0.85829
4.80384e-08
6.39341e-08
0.000164354
8.5396e-09
4.12669e-05
0.452311
3.64327e-25
2.34306e-09
2.97747e-09
2.45102e-22
6.0005e-05
0.675452
8.18572e-12
0
9.69387e-20
5.38479e-20
3.67611e-09
0
0
2.23933e-28
0
2.75299e-09
0.33222
7.08685e-17
3.96975e-17
0
0
1.17488e-22
0
0.300388
2.3795e-22
0
1.85883e-13
4.00917e-15
0
3.16123e-17
0
0.921191
0.199126
0.427217
4.86343e-23
0
3.93497e-24
0
0
0.0881332
1.06676e-07
2.03591e-19
0
0
0
1.44012e-22
0
0
0
0
7.54829e-19
0
2.01207e-35
4.91837e-23
0
2.07143e-06
4.07294e-10
4.55006e-08
1.50626e-07
2.92117e-06
0.248058
0.262934
0.170726
0
0
2.63487e-29
0
8.10639e-13
2.825e-23
0
5.47482e-08
7.05764e-10
2.36104e-05
2.25216e-06
1.52891e-06
5.00307e-09
0.164705
2.58549e-17
3.82068e-07
1.35231e-07
0.000386815
0.00149655
1.20897e-05
6.52885e-06
0.915126
1.5573e-18
0
0.161544
2.60243e-10
0
2.45085e-26
3.55957e-15
0.00135206
0
0
1.91248e-18
0.597706
0.013073
3.50309e-07
0.957559
5.95822e-11
0.000180338
1.84606e-11
1.51385e-10
3.12505e-06
0.0869303
0.0624266
1.01364e-06
0.972707
0.970108
0
2.61279e-20
0
3.75371e-08
0
6.26318e-16
0
2.43246e-41
3.86374e-32
0
7.43236e-19
0.00784593
0.0549698
2.18427e-07
1.54019e-07
1.48067e-21
0
1.59268e-21
0
3.85059e-11
0
0
3.77436e-22
0.000604305
1.82851e-17
7.92311e-09
4.72708e-17
1.01572e-13
1.89226e-20
0
0
0
0.914739
3.70048e-20
0
0
0
6.99591e-17
0
0
4.02132e-37
0.00262815
0.000978983
1.00915e-13
2.21351e-13
0
0
5.64842e-32
7.99774e-32
9.51683e-25
7.78746e-23
0
0
7.07297e-24
9.52991e-16
1.14225e-15
0
0
0
0
1.03577e-31
7.35924e-31
0.506205
8.86516e-12
4.85608e-17
0
3.43691e-29
0
0
3.00323e-19
1.78931e-20
0
0.00224258
3.06556e-14
0
0
1.69453e-24
0.0202102
2.45488e-18
0
9.4548e-17
0
1.35474e-27
4.05358e-21
5.44108e-12
0.171056
4.92069e-10
0
1.45551e-16
2.29399e-05
7.09458e-09
7.04253e-09
0.0444682
5.78979e-17
3.71933e-18
1.15928e-09
9.59311e-20
0
4.77658e-39
0
0
1.28863e-29
0
0
3.56512e-15
1.93242e-14
0.00134644
3.37323e-10
9.07053e-06
0.0790356
0.924598
0.904845
0.225314
6.99421e-08
0.000259875
1.55846e-16
0
0
2.81227e-28
1.27217e-08
5.21191e-21
0
0
0
8.34239e-14
8.89472e-25
0
1.46198e-21
0.421783
0.401813
2.67384e-19
0
0
0
2.09032e-22
0
0
0
5.75107e-12
3.21772e-10
4.01195e-06
0.00206561
0.00696103
0
2.83089e-18
6.59708e-18
0
1.29562e-09
1.99213e-17
9.35779e-16
5.25444e-08
0.945358
8.56067e-18
0
0.953655
5.76411e-05
1.26112e-05
0.000175957
0.613006
1.68159e-12
0
5.05308e-18
0
0.000567287
0.000402704
1.61027e-07
6.40205e-09
0.0382285
6.37383e-14
0
1.05036e-33
6.54492e-24
0
0
2.62967e-19
3.42168e-19
1.91004e-12
5.25703e-12
4.66149e-10
1.6597e-18
0
0
8.29329e-35
3.16434e-19
1.04951e-14
2.72206e-14
1.98499e-22
1.27219e-22
0
0
0
0
7.81146e-10
3.45963e-11
7.28811e-06
3.8012e-16
0
0
0
3.50528e-07
0.0114622
0
2.26303e-19
2.29248e-12
6.85052e-06
0
0
1.22513e-29
0
3.67307e-16
2.46536e-14
0
1.05897e-27
0
2.2076e-12
2.42617e-13
1.52663e-15
8.25341e-16
0
0
0
1.51907e-34
3.53807e-22
0.857136
3.55631e-08
1.6406e-08
1.44369e-08
1.83513e-09
3.92103e-17
1.36625e-15
0
1.37072e-20
0
1.60745e-21
0
1.17166e-32
0.000322952
0.281211
0.207587
3.14986e-12
0
0
1.73942e-20
2.68047e-21
0.686507
3.41393e-08
0.000136164
6.81905e-11
3.23667e-06
2.87137e-07
0.00059105
1.47381e-08
7.40575e-13
3.05904e-10
0.000731148
0.00315176
0.000233326
4.84953e-06
7.2829e-08
1.33509e-07
0
0
0.152712
3.90451e-18
0
3.79094e-40
0
0
3.39717e-20
2.90252e-18
1.88339e-08
8.00577e-12
2.23723e-13
1.34385e-07
1.07089e-08
2.00251e-07
2.30202e-11
0.201802
2.90392e-20
0
4.7691e-23
0
0.779055
9.15749e-06
6.99436e-28
4.7966e-28
2.51149e-14
0
0
6.82972e-25
3.81455e-14
3.55135e-14
3.59209e-14
4.00713e-14
1.12684e-07
6.1036e-08
3.55767e-15
0
1.89103e-30
0
2.27639e-08
1.01227e-08
5.27073e-05
0.241939
0
2.95131e-22
0
0
0.598569
2.66809e-15
0
1.09464e-17
0
0.195716
5.91478e-06
4.3335e-21
0
3.24259e-22
0
2.63742e-17
0
2.33381e-14
1.00692e-12
0
4.00315e-25
5.10273e-22
0.279244
4.67278e-05
6.11317e-07
1.08608e-08
8.54692e-09
3.50606e-12
2.90173e-12
8.42106e-14
8.58539e-14
6.19852e-07
3.41785e-07
2.05229e-11
2.3751e-12
0
0
2.6228e-10
0.155399
0
2.86528e-20
1.70793e-28
0.000525844
1.85671e-10
3.2031e-05
0.000139126
8.32106e-17
0
0
1.31475e-33
6.99946e-09
3.42279e-09
2.93791e-05
1.69047e-27
3.38802e-21
1.78428e-12
0
1.65843e-20
1.4838e-17
3.08418e-14
0
0
0.00308936
2.76532e-22
0
9.62936e-22
0
2.89663e-18
1.61379e-44
0
0
2.12913e-17
1.12114e-17
0
0
1.33436e-18
3.7059e-19
0
0
0.515372
8.39879e-05
3.79252e-17
0
1.40869e-13
0.100595
1.55443e-10
0
1.48391e-26
1.05095e-15
0
0
6.05363e-29
0
5.59163e-09
0.000100443
0.0151023
3.30318e-16
0
3.37089e-16
0
7.80616e-09
0.00024372
1.26664e-06
3.1411e-17
8.3689e-11
5.89081e-11
0
6.04422e-14
1.87023e-12
0
9.539e-09
7.2138e-11
9.55945e-06
3.74933e-12
0
1.34625e-17
0
2.51586e-13
0
0
0.332984
0.26446
9.088e-12
3.46748e-12
3.18572e-15
3.92753e-16
2.42363e-08
1.16904e-08
5.32671e-05
0.0140692
0.00864406
0
5.89968e-32
3.71913e-19
0
0.00121991
0.00260918
8.69457e-10
1.30793e-09
1.53608e-20
0
3.25379e-08
5.62885e-08
0
3.69638e-21
4.09751e-13
2.53718e-22
0.324303
0.00024902
2.29408e-07
2.99953e-16
0
5.86368e-16
0
1.90889e-27
5.50792e-28
0
0
9.25517e-11
0.000631758
5.40971e-11
0
5.52897e-19
1.21819e-19
8.37967e-22
0.0920711
1.71717e-22
0
0
0
0.000256415
0.00741419
3.62409e-14
0
1.34726e-16
0
1.00647e-11
0
0
9.94277e-08
7.58307e-11
0
0
1.10224e-15
0.426826
0.281379
0
1.00404e-18
9.45117e-19
0
2.08776e-19
3.03292e-19
0
0
0.139613
0
1.30342e-16
4.13942e-28
0
3.68431e-17
1.07612e-10
3.48285e-10
2.72549e-06
5.18157e-10
5.0812e-08
7.48398e-10
0
7.32368e-25
2.81455e-14
2.35652e-12
2.31689e-15
2.08565e-07
2.26985e-34
0
5.50161e-21
0
0
5.9145e-26
0
3.29249e-05
1.52053e-14
0
0
2.3489e-25
0.002817
0.00213496
0.000377791
2.68346e-10
0
6.52623e-26
8.07741e-15
4.71625e-10
4.61831e-13
6.93461e-08
3.60529e-20
9.11003e-12
0
1.3031e-19
5.87831e-35
0
0.0103519
0.798296
0.703619
0
1.01443e-21
5.68e-42
0
0
0
3.23791e-27
4.54218e-12
0
5.18206e-20
0
2.02974e-07
6.22308e-12
0
0
3.00274e-18
0
0
8.94372e-22
1.97713e-21
0
0
0
0
1.42795e-20
0
8.2235e-22
0
0.251913
2.07503e-08
4.63659e-20
0.000647673
0
6.08839e-22
0
0
0.228777
1.5121e-27
0.0039054
0.000981009
1.90774e-05
1.97204e-05
0
7.13637e-20
0
3.42704e-35
8.6122e-14
0
0
1.42009e-23
0.000538143
3.30491e-11
0
4.23476e-17
3.56278e-19
0
1.0058e-19
6.73698e-15
1.10202e-17
0
6.22355e-14
0.0604097
0.000928643
0
1.14723e-19
0
0
0.0143687
1.19892e-07
1.55973e-09
3.29975e-11
3.03817e-11
7.72013e-12
2.85469e-06
0.000284122
2.31906e-24
4.54022e-08
0.0240888
2.58457e-08
1.94746e-09
5.81073e-15
6.57585e-17
0
0
0
1.28617e-13
2.2419e-13
0
0
0
0
3.30103e-24
8.01456e-23
0
0
0.777673
1.61227e-18
0
3.02011e-10
5.71533e-16
0
1.58406e-24
0
0.014518
0.74051
5.13752e-25
8.78665e-11
0
0
0.154308
2.72051e-27
0.424083
8.61781e-10
3.30247e-07
0
0
0
7.05802e-27
0
2.76725e-26
0
0
1.16911e-11
1.82986e-12
3.37228e-15
2.24368e-15
8.92325e-08
4.64048e-08
8.36079e-06
0.000165449
0
3.73871e-23
0
0
1.62417e-24
0.000473511
4.39395e-08
1.85961e-12
3.76892e-07
0.356473
0.310546
0.00824358
0.00525449
1.0356e-11
0
0
3.9667e-15
0
0
1.67242e-26
3.16712e-08
0.277511
1.10643e-13
0
0
0.868874
7.24201e-19
2.40031e-19
0
0
0.261342
1.70545e-32
0
8.0626e-18
0
3.13946e-07
1.77058e-07
2.43616e-11
1.08891e-10
2.46635e-09
1.64286e-10
0.407717
2.07255e-10
1.6198e-26
0
0
0
1.63127e-13
0
4.70643e-27
0
3.63522e-11
0
0
4.79362e-17
2.52734e-20
0
1.8976e-21
0
0
5.5883e-11
0
2.06301e-17
0.0191118
0
0
2.57701e-24
6.16438e-24
0
0
0
0
0
1.107e-20
7.23392e-19
0.00182764
2.30267e-12
0
3.35232e-26
3.1838e-21
1.47934e-06
5.69508e-10
0.00740799
3.50828e-12
4.04427e-11
2.04611e-11
0
0
6.9678e-28
0
6.68614e-17
2.55763e-18
2.71963e-13
0
4.67755e-30
1.06278e-23
1.88224e-09
1.0216e-16
8.92764e-07
5.8757e-19
0
9.25624e-27
0
3.21026e-19
0
9.83463e-28
0
0
0
1.64979e-29
0
8.70799e-05
7.85734e-07
0.000659892
1.15094e-16
0
0
1.42811e-30
1.82695e-20
0
0.00365568
9.54458e-23
0
1.85132e-15
2.24922e-14
0
3.99437e-33
7.44745e-26
1.33551e-16
0
0
0
0
2.04476e-21
0
1.68981e-23
3.08218e-22
4.43147e-20
0
0.331232
5.25357e-19
0
2.1946e-11
0
0
0.00078752
4.14838e-20
0
1.13246e-16
0
7.20518e-22
0
1.84234e-21
0
0
1.54392e-25
0.0498465
2.71044e-19
0
0
0
0
0
0
0
2.00443e-22
2.84511e-22
2.37225e-08
2.02961e-17
1.88575e-12
0.437253
0
1.43229e-22
6.71785e-22
1.20317e-09
4.32622e-17
2.42629e-15
0
1.88095e-29
0
0.356142
0.0132314
1.13209e-05
1.11229e-20
0
4.20436e-14
0
6.70191e-18
5.46755e-19
1.31281e-08
0.000536854
0.0927615
8.37618e-22
4.46906e-22
0
0
1.1689e-14
9.60426e-16
2.06457e-14
0
5.53311e-33
4.27483e-26
0.377743
2.2328e-13
0.048694
0.0376741
1.41016e-16
0
0
2.2905e-12
1.40244e-05
0.00236523
9.52692e-19
0
4.78296e-13
1.44314e-09
2.69126e-05
5.04983e-15
0
0
8.16351e-27
0
6.9775e-24
3.45245e-07
0.434701
2.36844e-12
0.0035959
0.000798516
0.0135094
8.11084e-09
6.61069e-09
7.1613e-05
1.14134e-11
0
0
1.0186e-17
0.00293914
0
6.85015e-15
4.1445e-21
0
5.21532e-14
0
0
5.80195e-24
2.84275e-14
0
1.09477e-19
0
8.3878e-19
1.16849e-19
1.06463e-10
1.1498e-06
1.8112e-05
5.2772e-11
1.39206e-31
0
3.62818e-16
1.09373e-05
8.75415e-06
5.07497e-08
0
0
0
1.98897e-27
2.85337e-27
0
0
0
2.72654e-09
1.52994e-08
0.000140498
5.5036e-14
0
0
7.52417e-25
6.58837e-10
0
4.89154e-25
4.89908e-15
0.968204
0.301587
0.155199
0.00765196
6.25138e-09
2.48706e-08
0.107789
0.0895972
3.38671e-08
5.83148e-17
0
1.53289e-17
0
7.92539e-35
0
0
1.01337e-20
0.183424
0.0817428
0.020315
0.036462
0.719216
0.817676
1.04301e-08
7.22547e-11
0
0
4.9593e-16
0
0
0
1.43899e-24
9.293e-25
0
0
0
9.00994e-15
0
1.51292e-27
0
1.36052e-08
6.91109e-05
2.00136e-06
7.07479e-06
3.58979e-12
0
7.41528e-27
2.77505e-21
0
1.72753e-14
0
0
0
5.10137e-22
0
0.716809
2.0638e-11
0
3.77712e-05
0.0821461
4.56532e-14
1.03397e-16
0
0
1.34226e-21
0
1.75377e-18
0
0
1.31902e-27
7.8977e-26
0
3.27384e-14
0.0368183
0.0972952
4.04175e-05
0
6.1414e-15
7.81634e-28
0
0.00275614
0.252632
0.00026199
3.05584e-13
1.22241e-19
3.91751e-11
9.46146e-14
0
2.26855e-16
1.87984e-22
0
4.29649e-14
0.00153858
0
0
3.42294e-39
4.68592e-28
0
3.67013e-05
5.97894e-08
6.6961e-08
0.000195993
0.937181
0.947621
0.000458386
2.00554e-08
7.68277e-28
0
4.89089e-06
4.4715e-06
0.0293876
6.01453e-14
0.000395093
1.76392e-18
0
0
2.57746e-34
1.43587e-10
3.34975e-06
1.18495e-08
0
4.29828e-20
1.28325e-13
0
1.75297e-18
8.84788e-19
0
3.59197e-16
0
1.75344e-09
3.59449e-08
0.967985
1.20788e-07
0.000765822
4.02022e-34
0
4.63793e-18
0
0
0
1.14787e-38
9.74013e-07
0.00600137
3.19579e-08
0.00010705
0.576486
0.543742
6.73459e-05
0.00250113
9.11514e-20
0
3.57993e-20
0
1.20713e-46
4.48051e-47
0
0
7.04414e-06
4.05757e-16
0
0
1.00637e-29
0
0
1.5705e-21
6.72515e-22
0
0
0
0
0
1.36339e-07
1.47376e-05
7.0652e-05
3.3292e-18
0
3.0465e-20
0
0.0109023
5.86403e-16
0
0
0
1.08048e-05
8.44688e-22
0
0
0
1.59508e-06
0.0114718
5.6553e-07
1.56571e-06
1.24474e-08
0.824354
0.142215
0.00102939
2.43115e-09
0.0138167
0.000678093
0.000516991
3.46981e-13
1.03402e-15
5.48038e-08
0.00604786
5.84668e-12
0.308144
0.0693431
9.82768e-20
0
4.92354e-16
1.17766e-18
0
5.9672e-17
0
1.02408e-05
0
1.0885e-21
5.42481e-19
0
0
0
0.0399526
1.06292e-14
2.73052e-20
0
4.99819e-20
0
0
0
0
0
0.740943
0
3.55353e-18
4.2074e-15
6.22816e-20
0
3.4933e-39
0
0.0122918
3.20237e-09
1.49207e-10
9.70045e-11
0.484832
0.906627
0.224996
0.278968
1.59105e-15
2.67824e-12
0.830829
0.0420178
0.283469
0.000530873
6.84956e-13
4.08299e-12
0
5.63296e-28
7.68033e-21
0.000525265
1.38774e-11
0.837903
6.26028e-14
0
0.796253
0
6.35195e-25
0
0
1.04168e-16
0
1.24155e-31
0
5.35337e-11
6.5674e-11
3.95781e-13
3.71289e-13
7.2189e-07
1.97098e-07
2.78525e-28
0
0.000198237
0.953366
7.2026e-13
1.40305e-12
2.55244e-11
1.87142e-11
0.182619
0.201348
1.29563e-12
1.53603e-12
0
0
5.81828e-07
6.5407e-05
7.82323e-05
3.19001e-09
1.30751e-12
0
3.32433e-29
4.61394e-22
0.5542
6.58053e-06
8.59095e-08
0.0108435
3.16422e-20
0
0
9.86948e-35
0.0024162
4.89529e-05
2.77659e-13
8.53778e-15
5.84817e-08
5.51599e-07
1.41045e-10
4.96843e-09
8.31515e-08
4.26819e-12
0
3.14244e-26
9.98806e-21
0.599023
1.01424e-10
3.04583e-21
0
0
1.518e-25
7.36132e-10
0.000311736
0.0849323
0.000260009
0.00448152
0.00587561
1.24028e-05
7.80092e-06
1.95649e-06
0
1.58503e-24
0
0
2.31707e-17
0
0
0
1.05483e-12
0
1.36416e-22
0
1.0601e-18
0
5.56852e-32
0
0.275061
0.777637
0.769893
1.98825e-07
2.74552e-16
0
0
2.25658e-29
8.17012e-09
7.80943e-09
3.85503e-09
1.06115e-12
8.7943e-14
0
1.91275e-20
0
5.24417e-46
0.00161095
7.36074e-18
1.16041e-18
2.4418e-10
0
0
8.65356e-21
6.9869e-14
2.36073e-20
0
0
0
0.00688292
0.00593372
1.18051e-11
0
0
1.66662e-20
3.43366e-20
0
0
4.75927e-12
7.6907e-09
3.09324e-09
1.78078e-05
2.50428e-23
0
7.88054e-18
0.000106065
0.0129874
0.00793465
8.06266e-21
4.95731e-11
0
1.06752e-17
5.15063e-06
0.598061
0.0578001
0.547298
2.17673e-07
2.27865e-07
5.191e-07
4.07701e-16
0
2.15921e-21
0
4.22201e-05
0
0
0
0
0.0420568
0.00213125
1.51262e-05
1.24682e-10
0
4.04903e-17
0
1.07281e-25
3.44884e-22
0
0
5.78574e-15
4.60404e-11
8.52395e-09
1.64148e-18
0
4.06145e-10
1.21371e-17
0
0
0