# vtk DataFile Version 3.0
Advection Initial Condition
ASCII
DATASET UNSTRUCTURED_GRID
POINTS 5 float
0 0 0
1 0 0
1 1 0
0 1 0
0.5 0.5 0
CELLS 4 16
3 0 1 4
3 3 0 4
3 1 2 4
3 2 3 4
CELL_TYPES 4
5
5
5
5
CELL_DATA 4
SCALARS scalar_field float 1
LOOKUP_TABLE default
0.329193
0.329193
0.329193
0.329193
