TITLE = "Linear advection equation"
VARIABLES = "x", "y", "sol"
ZONE STRANDID=1, SOLUTIONTIME=1.9, I=100, J=100, DATAPACKING=POINT
0.00500000, 0.00500000, -236342684692764133420015359277768153757466703011343920792132486521806245878904651776.00000000
0.01500000, 0.00500000, 301989975453436049273429106744672537459574821535305390948914447822961958296532025344.00000000
0.02500000, 0.00500000, -372965466132012415228376953321445515223755505567967145591779410836250806651302445056.00000000
0.03500000, 0.00500000, 471205495511440491198127830585731578365056163325325436594312617250720481672033206272.00000000
0.04500000, 0.00500000, -598237648633987799944505420977534297826054660346720515808415496566670589915174010880.00000000
0.05500000, 0.00500000, 691622115927657503389585081250831235009400005309972223060464455973329545273603522560.00000000
0.06500000, 0.00500000, -772325678057813101639901054182702016861537647568824916010391152554867841283418750976.00000000
0.07500000, 0.00500000, 833288824063330489691875770086970343336203661027211402721093810867359511003309015040.00000000
0.08500000, 0.00500000, -873651594406225388773965181927805709532926498478222089548238904612141699016138162176.00000000
0.09500000, 0.00500000, 908336611377833714606501680071259491058349566992282718262165198803102156647749910528.00000000
0.10500000, 0.00500000, -955898805950076276616355621616713412053624935870061512009325347680272071966398087168.00000000
0.11500000, 0.00500000, 1024276481521889863603239292332372554900190880976923289845365027018924658660860755968.00000000
0.12500000, 0.00500000, -1111074968741502411597120848186873749427051184256228890774963281409297243569580408832.00000000
0.13500000, 0.00500000, 1217614259889902187879140177088544447007594940720665398205895146861171846210929033216.00000000
0.14500000, 0.00500000, -1366817114821119091719346471944926331594246816424234510045521723083010046564356849664.00000000
0.15500000, 0.00500000, 1596254657488263360980537994593854400621480035505169937135563543896290345549861748736.00000000
0.16500000, 0.00500000, -1958867525578492360448053666200926628574563695824045341875728020585739981534764466176.00000000
0.17500000, 0.00500000, 2578671970840184048669674468910355883480799572638192817548409630043053731913133981696.00000000
0.18500000, 0.00500000, -3712459311778210460323090526271831762910586165829840695091875531949031843678635687936.00000000
0.19500000, 0.00500000, 5642559280463710888743720223728205785231979014349016696684681122541905762148367204352.00000000
0.20500000, 0.00500000, -8489600792704548184459847650892810512160359161651567809497652740547167844964440735744.00000000
0.21500000, 0.00500000, 12227649632438307303417771876746132610470010620785993763171900892860515804983158898688.00000000
0.22500000, 0.00500000, -16919057207637836319518421813212780404664268480471189107071661147174903298372971528192.00000000
0.23500000, 0.00500000, 23048645557989755228699563640910570850399358287456349412917816153190432754765058277376.00000000
0.24500000, 0.00500000, -31506697207992784586926074633855479032877746591714326657964559692186731770429740941312.00000000
0.25500000, 0.00500000, 43098102492694034453184521209546612824327176500626622768949891930583224066208956416000.00000000
0.26500000, 0.00500000, -58419378866043064019592825270176252461907719618372678611808390745237371847990140993536.00000000
0.27500000, 0.00500000, 78206090855864145661248803674788578953376003683091184532870331340302193108173161758720.00000000
0.28500000, 0.00500000, -103135411175002874815158825654545469091308385573821096924531757358844900350410136485888.00000000
0.29500000, 0.00500000, 133107911943053956685650393199555500798100196738339592759456376401963844466617658376192.00000000
0.30500000, 0.00500000, -166543903542978126638044510506266712189276226720800184184899501304402428908963224354816.00000000
0.31500000, 0.00500000, 200336909205055532721212568905091515817201186435692233611630860082764062247040852164608.00000000
0.32500000, 0.00500000, -232028602846783224356959998766083283460260286616980862234917013252955716448101861425152.00000000
0.33500000, 0.00500000, 261760054114277240285377379078543034855414380686024793042327900044940072082007660691456.00000000
0.34500000, 0.00500000, -289853781479503948702278468364082058563961908047284628664235715342410991661592478744576.00000000
0.35500000, 0.00500000, 314402883028799703696784239655365689061363239147737620986630999041091612708618975051776.00000000
0.36500000, 0.00500000, -332660160454190482651615084765612578904201852330668631622192173398690382322550072934400.00000000
0.37500000, 0.00500000, 342459183815404280537239954888893397936532447634016745979885251165591362375120016375808.00000000
0.38500000, 0.00500000, -344348201013356525165140344933436575830858393668216073436951658302942304065717689909248.00000000
0.39500000, 0.00500000, 341526828421803702428811920188769747810573710729529632205716120897724015745040644046848.00000000
0.40500000, 0.00500000, -334112093898797989166052859056375313607900706120619396161477861998627448675983861743616.00000000
0.41500000, 0.00500000, 318859865454730241681194957421432630613719011658976988617837689576198512899061119451136.00000000
0.42500000, 0.00500000, -295525691192598240634604589646637465395801981214121992009288556835814568005721294635008.00000000
0.43500000, 0.00500000, 266553345911655887010210780606241971206849076504662295587840834774725212631192213389312.00000000
0.44500000, 0.00500000, -231222175689054135418146995601049447131124640143030582849040644222722042789089857503232.00000000
0.45500000, 0.00500000, 186333805241801330398423299780438688858767383857286242679378219111700511880506144456704.00000000
0.46500000, 0.00500000, -131975124503326566799692425317756054547959449751573460424861457372648315030328259379200.00000000
0.47500000, 0.00500000, 71814167550273013277361332264999035997784712283773566338420674086414821283764461633536.00000000
0.48500000, 0.00500000, -9685626640703997838720030669495612948743372589471442059276376570192548718774384066560.00000000
0.49500000, 0.00500000, -50880308200146720675149686258829695803075006838713312398030794374642141891197898063872.00000000
0.50500000, 0.00500000, 105816982898328731117325342462495632398439862934192488254710096605049136872131701768192.00000000
0.51500000, 0.00500000, -151521396534204167117120093970662256740801081130874681831855529418514114689096340209664.00000000
0.52500000, 0.00500000, 186866832634443031041326975651010895677232650600713771487114263026181239845630704091136.00000000
0.53500000, 0.00500000, -212157487481935148943340575136624224327317002943030656504818557951736946232689409654784.00000000
0.54500000, 0.00500000, 224929576259486642497789364042528234828027725887069440106758517183807301778548134510592.00000000
0.55500000, 0.00500000, -221451563095687615751500793292602228946374303923983978946252273094366042218349002227712.00000000
0.56500000, 0.00500000, 203975911769039154665435065406898807469137461106180873683925364906192071824182408642560.00000000
0.57500000, 0.00500000, -180491537127549686564314806465658363694686536457814950188371527641204261974513186504704.00000000
0.58500000, 0.00500000, 156520720569562556281845264467977769561918895871845518835071289296783551954801762762752.00000000
0.59500000, 0.00500000, -132431098101637317469938169991087639648996898785895679626941679738755623590013561733120.00000000
0.60500000, 0.00500000, 107868408498007133400666622024450466385725105244308725175865451381175959613693648437248.00000000
0.61500000, 0.00500000, -83875060494103394303605994243980541075642286104686788459547337539260950440188546383872.00000000
0.62500000, 0.00500000, 61777412609935341721774367126858694344998139081913038664362215868335777566569405612032.00000000
0.63500000, 0.00500000, -42595692760466562328005638644649245141937853529812995541096595907193467242103072358400.00000000
0.64500000, 0.00500000, 26831387679699451134608841958222348482412025948755197667653299921967737213094083952640.00000000
0.65500000, 0.00500000, -14454029461660124293188252675187445992113474029315313764312626937684150523079417659392.00000000
0.66500000, 0.00500000, 5192872600293660011638278136069909868887073024348154890199690831383505790673723850752.00000000
0.67500000, 0.00500000, 1340779758336215667215869763194433407810035229373008631808918453101081623468384976896.00000000
0.68500000, 0.00500000, -5652459960041174562776821357794011841331873150855358902200337094243459340364287049728.00000000
0.69500000, 0.00500000, 8203155843225395504878211573224438714024695391615320111826807963431037089378589474816.00000000
0.70500000, 0.00500000, -9320521920374818397665206090739261881129104579975992124125032846332893078340289691648.00000000
0.71500000, 0.00500000, 9503272695747822351287341798719525188659668619936350498873551881836553978870711189504.00000000
0.72500000, 0.00500000, -9314630508159022379627572720497903193420136771119018813438027791612695026909893885952.00000000
0.73500000, 0.00500000, 8803847674555813305708480985027422007927627523227798650504419180128660667477423816704.00000000
0.74500000, 0.00500000, -7914937228073340189705585639261120359905069699010257319197625579093946676356120051712.00000000
0.75500000, 0.00500000, 6442424953040575356348996191362272996505094079201042085609380999866104348059463843840.00000000
0.76500000, 0.00500000, -5493565591460508262262543046483159598375209676165410582538147807460461506922935222272.00000000
0.77500000, 0.00500000, 5180924090328378750923708009580581565163959224437665226153406287272218058371849256960.00000000
0.78500000, 0.00500000, -4338299271203064597331860933739678096200795110213698239181198777113448913014481747968.00000000
0.79500000, 0.00500000, 3358809922938215075580069677676682137734308111019066076261131067015091122228053409792.00000000
0.80500000, 0.00500000, -2511509067009477420627733909952243428982027603446623500120343956898124301683579158528.00000000
0.81500000, 0.00500000, 1802611569305529340042729920733876766521491702042909792829716797365759855042655944704.00000000
0.82500000, 0.00500000, -1230822989918841247116856131025419692444805473053330469459088715701303871664742727680.00000000
0.83500000, 0.00500000, 816558412132458985813177209696457630764958669258046404182988773885625641863628193792.00000000
0.84500000, 0.00500000, -510493416309629031633495805763348871415465416254407303017679019584097961132072894464.00000000
0.85500000, 0.00500000, 304347692782906791870524039281703629274677579547942761515942476376458395703968792576.00000000
0.86500000, 0.00500000, -196774613583600502348335264690661641270706935220569631277183459962846028550432096256.00000000
0.87500000, 0.00500000, 121299762137215573586468198104459283219023325440420205498056078935899039983460155392.00000000
0.88500000, 0.00500000, -70610092994622504879376926860300338882445352096524134023060227020719743895429185536.00000000
0.89500000, 0.00500000, 41924606884223657571415577826210171929250740151442594086641667849582586081140801536.00000000
0.90500000, 0.00500000, -27648563201906959625377967883294856952823405477354902278740876432079673038798323712.00000000
0.91500000, 0.00500000, 23434076491935387485694289198004978135193280926059007913829422756472123666569625600.00000000
0.92500000, 0.00500000, -25899691829213812489968221308584510883870345382593514778007160024493629070460846080.00000000
0.93500000, 0.00500000, 33384001194742518864161861728355971562567140306568491683297694899431066738337251328.00000000
0.94500000, 0.00500000, -45095459976701326350546994619888499521095048339198572916913823532259201951140413440.00000000
0.95500000, 0.00500000, 61253683287103052536890349711762028869360084429887285787933608751191748776151744512.00000000
0.96500000, 0.00500000, -81234866787138109135145428446128026277079499974344743154940840771681120849923932160.00000000
0.97500000, 0.00500000, 106759255816281875955339579953792510116587539505870687307713464781768161401069633536.00000000
0.98500000, 0.00500000, -147167599495847122117963636951527579133523853718661950960740171320743676113449910272.00000000
0.99500000, 0.00500000, 205267714004685391668757382809604908957897210331530906544691195770007695107655991296.00000000
0.00500000, 0.01500000, 340004652639691630654496213389449567175924428630180855436801737090935314055696482304.00000000
0.01500000, 0.01500000, -435904677126516411821096933378507509472556249101912458200348030854722080471276060672.00000000
0.02500000, 0.01500000, 535014461050937818001257984275643435742298235791424181652777879685073418127623061504.00000000
0.03500000, 0.01500000, -666494664497838955148957565569149688124145424256916876753764381779793141678081048576.00000000
0.04500000, 0.01500000, 780322926541263319246562154192896579106802827005680403477571241285485137596826779648.00000000
0.05500000, 0.01500000, -887047377404393838453807707014199096347642852046047566868692392122553165313568931840.00000000
0.06500000, 0.01500000, 972674001683311964178002210304584957527911192077716785251747490991736846085605294080.00000000
0.07500000, 0.01500000, -1029427712852970810241959710853505116796815397733557906210261775008335539105263779840.00000000
0.08500000, 0.01500000, 1065256237900770244539489258119638616544917002515346553919891245270827551528111308800.00000000
0.09500000, 0.01500000, -1098812907874845971612754881525408507465365749682614138409649157937606625821496180736.00000000
0.10500000, 0.01500000, 1141461772345202535236457091118700543289079880003737742725774119119157813597138059264.00000000
0.11500000, 0.01500000, -1187957037492949516191444269633634420996997054339167525712363843309743478901005352960.00000000
0.12500000, 0.01500000, 1228290447731498039907908617388236894452155304226623303703552284308176919098736771072.00000000
0.13500000, 0.01500000, -1266774042725023205340304997216903842293962475642867156904046047979783101454980481024.00000000
0.14500000, 0.01500000, 1327055307969878191119868501434886053000851241449152137859266573635221216622001782784.00000000
0.15500000, 0.01500000, -1442617336320607683556726306037768911170754522547915975215052046629616992618161373184.00000000
0.16500000, 0.01500000, 1663519038419790131486313888953506421260675694540126742611809857831327762751332286464.00000000
0.17500000, 0.01500000, -2102467233772957876904260257821371406276450373518487545279958279594673906372145315840.00000000
0.18500000, 0.01500000, 2949559850399861512237446669516273939757992590389141799351118007066570122392909119488.00000000
0.19500000, 0.01500000, -4360092515833430924524703229858528322920401915589564419491431732328453121279610847232.00000000
0.20500000, 0.01500000, 6368686898910158990936546015969251720261541688667207601731820259725018625994502701056.00000000
0.21500000, 0.01500000, -8984611270762898867185152590127429757239187478396274655990707121923684156965677694976.00000000
0.22500000, 0.01500000, 12412937524021299621277675105528197885772931586726787802153076814834534741578203791360.00000000
0.23500000, 0.01500000, -17221282397509927290028402883919431518466669270281003353922744512988342520141492256768.00000000
0.24500000, 0.01500000, 24137515970438560855799086248511860344316046831918408684803874448019596455777558069248.00000000
0.25500000, 0.01500000, -33664401707666483602774709875668863119206590835025411541872947262029298290341128962048.00000000
0.26500000, 0.01500000, 46227940826876106429744857217734957784244277287858651946458012195592616469279857967104.00000000
0.27500000, 0.01500000, -62519218815568567081917590135107112034768163531919709561968272578366529934528975208448.00000000
0.28500000, 0.01500000, 83049640222629567362719358224892798763795948373631207096867807024787480651427712335872.00000000
0.29500000, 0.01500000, -107281011370644854371572005225532305997106141127222193873151300586873103794201761415168.00000000
0.30500000, 0.01500000, 133231112404754566064801502803742550030399774007820997153317903375083999303886864121856.00000000
0.31500000, 0.01500000, -158783164929184893736226834603934331008882246723976315054895085153813213154787192733696.00000000
0.32500000, 0.01500000, 184014281627413488336110309583405953370300929349118340584158090571470110055785320939520.00000000
0.33500000, 0.01500000, -210092563216592587786396755442841507306719001262868784390931229647728006813914482343936.00000000
0.34500000, 0.01500000, 235644110529708426963582394750398485013443044325187564748188502194150765735537761320960.00000000
0.35500000, 0.01500000, -257827380087852304542422308270269366299850443034956228435110505479274934022871042752512.00000000
0.36500000, 0.01500000, 274842519553491600662459070752068893378912897879826716381851569769784100731836398829568.00000000
0.37500000, 0.01500000, -285150680999199429162270297748920222972545954245072604210963330625025700756355851223040.00000000
0.38500000, 0.01500000, 289436180198410905990519869375838846155422695291809527147168588531752089584808910389248.00000000
0.39500000, 0.01500000, -290316546447330961893375504776305957491254326501471200042273458674341695118371943612416.00000000
0.40500000, 0.01500000, 286587290066575528763568959939620830195669938248434008171483632352639561655858860392448.00000000
0.41500000, 0.01500000, -274516571421500661015324570633033439957653961533957301581530795241155249434325376040960.00000000
0.42500000, 0.01500000, 253910835562910588823714000562958985935605598835430184321133897015554464145707393613824.00000000
0.43500000, 0.01500000, -226468920836465660614044361501738264528198203639559666389747032479694003828397776568320.00000000
0.44500000, 0.01500000, 191540160800627687635844428985349389802752006052500572151107836949418898004045511786496.00000000
0.45500000, 0.01500000, -148239848068904262713953478238002014594125891579184579496201337908113205208196147314688.00000000
0.46500000, 0.01500000, 98101830235521557278955316757536436211324974984534274842872278120204597402087999930368.00000000
0.47500000, 0.01500000, -44082125974359763389453209815023531471221968308998813038803779420191265122252643893248.00000000
0.48500000, 0.01500000, -10390572656209815177331670174218599888785323960522427683005990280567742719283628605440.00000000
0.49500000, 0.01500000, 61362952771504149148793359183688902925114441468300884941244283176339288338115097264128.00000000
0.50500000, 0.01500000, -104942815959915576876266198031799471073632789446836490622944611887747953538153108733952.00000000
0.51500000, 0.01500000, 139145800512624675172842562842226593984681294298515825224163004885410885826332053209088.00000000
0.52500000, 0.01500000, -164626955477555805879600923012405953013219822573404294200610573209039820504876732907520.00000000
0.53500000, 0.01500000, 181551772716625239504977212291178390611545207825970409886039773250258337923989176844288.00000000
0.54500000, 0.01500000, -186915846193749563688788982781106752958227117844157375789389182913678801753542976602112.00000000
0.55500000, 0.01500000, 178801896572695606602112201386360118538779744479971399803560263783459213649155117285376.00000000
0.56500000, 0.01500000, -161277478916116208196236997807297984879457796745447553412766476864113247849459593773056.00000000
0.57500000, 0.01500000, 140641553477849669481647071426470400022397543653535535883097066576055882892486748667904.00000000
0.58500000, 0.01500000, -119568562289418436454672834608578302909339983460784023576608290254917854565009186619392.00000000
0.59500000, 0.01500000, 98232849956019878959505980966570381872663049015743202625813428544517049953311495553024.00000000
0.60500000, 0.01500000, -77231648106315008411277218831529084464157298710556692266840480661332678961098009870336.00000000
0.61500000, 0.01500000, 57522160006924548493417472762117358582909758799885171134715585059822823715962909360128.00000000
0.62500000, 0.01500000, -40101626900927103678415840585325525103403939345272928403478097738089648276286614798336.00000000
0.63500000, 0.01500000, 25734676714865139127225157214879900980602751840428580654661199067829205909523939721216.00000000
0.64500000, 0.01500000, -14496272405217240442476040235525232489293626971155644934059868384909076314404138516480.00000000
0.65500000, 0.01500000, 6034137969178230041361012589722960247087736835655222957562210781165741726267592409088.00000000
0.66500000, 0.01500000, 24448152757517297050973107829928807561511510431235646726578650281456575412025950208.00000000
0.67500000, 0.01500000, -4072248893924097753988187075446161378809706647007566168353488244013614414293809233920.00000000
0.68500000, 0.01500000, 6553506205385088473147456753297441745276308687312636761561447787633917598420776779776.00000000
0.69500000, 0.01500000, -7733054188034463054614192999335535415063486366319931259248724837925221807308748619776.00000000
0.70500000, 0.01500000, 7829736042336904245633004974950288218484605591954231137920209788530993732672422936576.00000000
0.71500000, 0.01500000, -7515242337545492772952150971725310260828992150922582389320685714795588922544970792960.00000000
0.72500000, 0.01500000, 7180748519260394707988638862344965441100190709772514773688007754671594735719610843136.00000000
0.73500000, 0.01500000, -6473583374659162674455792991602427227120362873224390748332117998094931707325054976000.00000000
0.74500000, 0.01500000, 5568946685462258427564987264744982817420774158834460915689258001811469355483939209216.00000000
0.75500000, 0.01500000, -4223982592575832980570463350443981231332916967219310859239632753080894371367013580800.00000000
0.76500000, 0.01500000, 4078150376611971113249394557724796201136413237757892594939638129269958098718086397952.00000000
0.77500000, 0.01500000, -3676684091557755000186102315967888452321114032306211399692556685726572582611789545472.00000000
0.78500000, 0.01500000, 2886953483225217243861806180056873135702250315231884383620072900096206509971804782592.00000000
0.79500000, 0.01500000, -2201243213687674690098915216239744652872610981971037030893681388620949855266676932608.00000000
0.80500000, 0.01500000, 1622173585296693414060561116203628243471442307379784192048020916155378316374553133056.00000000
0.81500000, 0.01500000, -1119373973192301320916366416462145923224400270371562585422291086918396485371563081728.00000000
0.82500000, 0.01500000, 724503725199877457675221398347797129044627846488684154598557393523930045852751495168.00000000
0.83500000, 0.01500000, -488535077110754855271110977902704032575993560770202364273160816627190629719863197696.00000000
0.84500000, 0.01500000, 288387230198207681336291094487181119125038105796417161907379552742900457336410734592.00000000
0.85500000, 0.01500000, -175206979214037261196392432840815213733106618812826915479116895991926175663633989632.00000000
0.86500000, 0.01500000, 112426102831078960817381675038653049338271414218404381604196971529856580665984679936.00000000
0.87500000, 0.01500000, -66144932248266616029083425212504838528340245730718510510223209690862221690381795328.00000000
0.88500000, 0.01500000, 41123361057071544043514918088525280571352630368726929684988405165030778527752912896.00000000
0.89500000, 0.01500000, -27039048329724125721163726563780651235030405565219831874611358072859347401098395648.00000000
0.90500000, 0.01500000, 22812076709961019048946619500119611812410650655642627993937561908467362176968949760.00000000
0.91500000, 0.01500000, -25314601661167842193627634995236404498607738024479156467136916492779356295710900224.00000000
0.92500000, 0.01500000, 32673570880376860053628258328574104315561279273495471785261875478080946403482271744.00000000
0.93500000, 0.01500000, -44547999974318925931381941953240995491027030513397078402683474622992691387638480896.00000000
0.94500000, 0.01500000, 61539254333010542029189776797356349692967884070721285573536505743922576092288778240.00000000
0.95500000, 0.01500000, -83487662073505915988500052816458814069775307047012685727867322654988061504203390976.00000000
0.96500000, 0.01500000, 104796867585890701185147620986326037240004947941751811271752455081328651962960314368.00000000
0.97500000, 0.01500000, -136171467082546361409702883953230435789074094884184228667565196861494746223961178112.00000000
0.98500000, 0.01500000, 196070190391793014259988887772128694298513641857715598229325744153453924826516291584.00000000
0.99500000, 0.01500000, -273311854711967137792270956029936360534376997019878589701133366714499742181059723264.00000000
0.00500000, 0.02500000, -457410297184442978361152928616978951990358655393789083418630850943695101542061309952.00000000
0.01500000, 0.02500000, 581916312567166395438866854501139823521648643292863515024285959457039336224499695616.00000000
0.02500000, 0.02500000, -718881838206738671185085411448170170201047884602442340138948958305363002321658707968.00000000
0.03500000, 0.02500000, 856403416522109663996156944168438624323165758958262604152069397637233577076644118528.00000000
0.04500000, 0.02500000, -994073735744788101102117215023492547097120195658521000468517781201766908334402699264.00000000
0.05500000, 0.02500000, 1116312756917399680718697011146138512529506942445946405101788174139610075161105006592.00000000
0.06500000, 0.02500000, -1208795165560440028986962605849084776921823586576585194008183033840236375059348848640.00000000
0.07500000, 0.02500000, 1270210602762643555758625293179235469447401276900487051980126766037454665558161096704.00000000
0.08500000, 0.02500000, -1311647378786415940047776448750826826935858044859865986926548469325215350052387553280.00000000
0.09500000, 0.02500000, 1346600363546145342195189201936726806936703326520797364159170348332517077994491084800.00000000
0.10500000, 0.02500000, -1377061756086144065999967681112527113138804801087141098617575491902296215957067005952.00000000
0.11500000, 0.02500000, 1393224451746076533585326591344564065306950639300089300334024933722532203428279484416.00000000
0.12500000, 0.02500000, -1388679677529892128463903869863776097891487141946164675932652324752922651012500553728.00000000
0.13500000, 0.02500000, 1371350027624072354050045655160429409068581198521615798402313756593145460492760776704.00000000
0.14500000, 0.02500000, -1363536221358506062333127978754866000814445274182076157767520511857353914590387240960.00000000
0.15500000, 0.02500000, 1396618266357547459583027216676768707183661907735926463592414761241319939484097183744.00000000
0.16500000, 0.02500000, -1518443800760261021977874819283299320233845150744794407031732044603289219980639338496.00000000
0.17500000, 0.02500000, 1819964251407000619880774062038866242740013925820802739563230173038679532142363410432.00000000
0.18500000, 0.02500000, -2422124645066682130911832425802212332566208063203638719931011324167887265908882669568.00000000
0.19500000, 0.02500000, 3406101260147774194703793252892531382173066768850490664276802041747005039196638281728.00000000
0.20500000, 0.02500000, -4803991572120963472588071135555652378219502630540922981930837964010168511442764955648.00000000
0.21500000, 0.02500000, 6694716423734676261904532294115330445820298553496652705683841634687115962885701894144.00000000
0.22500000, 0.02500000, -9351981256499605902281766196248200463458619135522888631149378793918402962561764950016.00000000
0.23500000, 0.02500000, 13293159572151341393133041115442447387871917623275132371591495919088964867098645889024.00000000
0.24500000, 0.02500000, -19031720915415875721942596687027176467207810152580763596496420669280912719039724257280.00000000
0.25500000, 0.02500000, 26874580657018261474572724522418546111476174491143516778839658748056218007498670473216.00000000
0.26500000, 0.02500000, -37224028688155701514910445244729580415984260869987579609265910753341133409103722315776.00000000
0.27500000, 0.02500000, 50663634246976775647731907584790444334131481399434106823320379724542228205025129136128.00000000
0.28500000, 0.02500000, -67360327565472625963806083512321815449464264365417673525106611314038020472921607110656.00000000
0.29500000, 0.02500000, 86447329603314943519998526260641829708564316293150672017051337288152271002234750238720.00000000
0.30500000, 0.02500000, -106219436949354818755660110225197647101614970388777967673182351314485530495307395104768.00000000
0.31500000, 0.02500000, 126014219198272143816223621231503438879986537554869024968085412335268232821949232840704.00000000
0.32500000, 0.02500000, -147247933548408738369534514914065272692952901532031760131475281847233766849411784114176.00000000
0.33500000, 0.02500000, 170337316275623988492520345738934162405750342325386225956790234479297759522829004439552.00000000
0.34500000, 0.02500000, -192737472800750437277495482503031072580615020553493220079050180565865087818091622039552.00000000
0.35500000, 0.02500000, 212250773511770798921463512707032108050698637598146679535537347606969585832477323165696.00000000
0.36500000, 0.02500000, -227625701177820384954388374371455182355659485615992562679685409942183151302796078219264.00000000
0.37500000, 0.02500000, 237436104012132058057014640228981771725630665549682552715030835581467925720669460889600.00000000
0.38500000, 0.02500000, -242836160409998281843996465900485191146880720958493221942825692124846754783313205919744.00000000
0.39500000, 0.02500000, 245189342229790912914814523026301481211649390965702846713532090104261108620199322451968.00000000
0.40500000, 0.02500000, -241764683803705752951655647135551643931141964755847109631697732094803220321722376912896.00000000
0.41500000, 0.02500000, 229975775830618241559258036521920338189018766854589748693691936257466240525807936077824.00000000
0.42500000, 0.02500000, -210773350195755337549279527698391342678973515081088719723987448812213103666984034238464.00000000
0.43500000, 0.02500000, 185139798592459753550628871547497351663056950658981307284048960135246031018668268191744.00000000
0.44500000, 0.02500000, -152557718441661233680624985224246971067599512205551332230215168324170699111064282333184.00000000
0.45500000, 0.02500000, 112974860394907678915199476684142359441293969942823688376569829879638850466323076481024.00000000
0.46500000, 0.02500000, -67892621948101952688575945578884920311691742681078501391186926318838507164688386621440.00000000
0.47500000, 0.02500000, 20324676177922750542517987079291724418456206740404385412935502885215631703917635567616.00000000
0.48500000, 0.02500000, 26048138860851499960049618141596374127921369072822381536715884897329963643227441463296.00000000