TITLE = "Linear advection equation"
VARIABLES = "x", "y", "sol"
ZONE STRANDID=1, SOLUTIONTIME=3.7, I=100, J=100, DATAPACKING=POINT
0.00500000, 0.00500000, 195021260305604052966900501529406238633222767849505663870992806157415354623924582749453756694006079251905891965954454157786159795695733236881641481451551129831408154246643712.00000000
0.01500000, 0.00500000, -180872082929300512447246537906494574921707702850066647532795354308307434185846414463159969804846814200395445794577985129503013028682191519520482055244950668348392419476111360.00000000
0.02500000, 0.00500000, 159486378660506755591548775978618361912000958263610934266009101115861403353979206245545522529593121540581909271121784963325727363079874408206820810499992766105655278837956608.00000000
0.03500000, 0.00500000, -143726445240558425068499399419036949277613753031041302265688541583792365482858748604061065644091135978085789485465279490875670358030885594956556605731083274035074805964734464.00000000
0.04500000, 0.00500000, 132044633199914397155475714657651146034670375947553612518040468342564443414543877937423990287976210869810687742759879913999481326829809677280729911017597188206174147077734400.00000000
0.05500000, 0.00500000, -117205122885653618075503542202628470456880711770438945035841651419596546800995046833904187494919768508940220342627863550167292107855749049885308017167175920328361540480663552.00000000
0.06500000, 0.00500000, 100836111023325564637024596781113188482894520169466403768840532186790808351679297763109387523582139785043728946410206417689776835446702702444296557158038426129823101387538432.00000000
0.07500000, 0.00500000, -84694431584336426219197967115040383557005605705198608879432173010345798466341376671637509314203159179497149805599907416024914171608739771905466389461773104388752817914904576.00000000
0.08500000, 0.00500000, 68344852596630382887360681600808498902778699836185399186223014042549630281458682407534275733564432980432313174915629177150797551708086880278088434048708767567951976636350464.00000000
0.09500000, 0.00500000, -51863359398641813662491017820814338736224392945244058069766278326890603027471336076485420844204018885393234727072474235102408698560235242339095831434063164016857554178015232.00000000
0.10500000, 0.00500000, 35895344154019839784605209046183144799486749339442012301705884577272320417774261322889718451293725280197568420532325469295472456324059029908641659105949029142375285039038464.00000000
0.11500000, 0.00500000, -21018243682240224254335260652624384756888290797315199584305436315120627591025377432858281217835699904521643799524111345901686371566011597343036936302125728728150832893132800.00000000
0.12500000, 0.00500000, 7763460525768226725369752755730459540922072823809753941091389815997222039703638331889499832049999772699372336308245785602329036554264915193872307731060287767815350277636096.00000000
0.13500000, 0.00500000, 3753866434376454264251315273488504718005100550629916879248996637724742492328323313685546293110963693818329458113236282460390994736005032700087979800630520898839949688700928.00000000
0.14500000, 0.00500000, -13910233983477815416496100430510390677089325642837860431022453764961580905261422561087703159191331635162893727970038702206082245782882465089080944847502025829778219413274624.00000000
0.15500000, 0.00500000, 23062091935566192260103041131954656703737050863587995342409888038825376931718788988731073640410517356703805795512460471117088229719243563641514486712178479132536979666763776.00000000
0.16500000, 0.00500000, -31453806261721209192130139551835694783114591120263228640851917081230825253355105556237042164904381510110583552758081937526382571251877684064216383514146044734912076980420608.00000000
0.17500000, 0.00500000, 39128363236844646247369923119307557676021188075978823851594447481295026374292345482338532734128846973444995785432226516043310510774491784632374919431611074250403529162227712.00000000
0.18500000, 0.00500000, -45755003333019587864874778537329801556607567948610543095626492162331008306348382662346897052920345453335889738820500565721860758924100729112831649908230929590071274258825216.00000000
0.19500000, 0.00500000, 50971897482361227243547275865719223951049996989745784683650158186977565890155938651394809139656222239350724521650499476714760462181901799029740679835871956356927381504524288.00000000
0.20500000, 0.00500000, -54667263350710036800533080830149660252910877336265642847077117291431300754976524339880405732190768993806549208448133724836031657880642229705242237184837532273861126101401600.00000000
0.21500000, 0.00500000, 56770918670953298400500788700412906956829730182511893974485429336810704819537400443867039623924308189169654041496740738945270799794472833571742359107204207600688487190233088.00000000
0.22500000, 0.00500000, -57241465275823703079880711709286133048869524291088786435104925529794724194121496913325693192900042883834485909576122387559846334743728940884530788847619170128433194033217536.00000000
0.23500000, 0.00500000, 56410018991732531964512594064944174624441952416256672806981321670768844046069797036029897936742363739134092334211159833741620547356897779852520227882959532268611149167067136.00000000
0.24500000, 0.00500000, -55050117505822460346425050833661407339800252041568250739071455100156213186524951804445486234405634791427156294026413720414894536159302194927177005919143961610398860295798784.00000000
0.25500000, 0.00500000, 53845214640024653190535182708202586136589934687932204662108954325148547774030143355056687116466334116028917735229991184164231130199395236331633899259025222041474881025998848.00000000
0.26500000, 0.00500000, -52888737342328382253674911973834025602543324353845701691963746851906228810941158214514335183154286316880827391330356494373241163493686857473782564409907726425891468293963776.00000000
0.27500000, 0.00500000, 51813567568729732787368713809233062478471876841859778268626870852780302990558418163272484203288934112607289874061730046054083626389190825506632942089881797590605282469216256.00000000
0.28500000, 0.00500000, -50305816284753420975483174036753049150589114738090663864608407969783360555368079274100302086281237839451799361982790788849261010682708227327065064164525571510639153115037696.00000000
0.29500000, 0.00500000, 48486623149469783681577463027785470695345361432326517016277223057522518889018888017703249550200474880383742497113200704540363859575448936422321942301069493303195242223108096.00000000
0.30500000, 0.00500000, -46843902222558728591422555783847398535485331147090541371471411778231937688954036587657151770945545376703155254632119763673314811303798562776533634805913637395972690643255296.00000000
0.31500000, 0.00500000, 45801675239397843348952478102749174697108081414235390742406062327207084325306026921071234606976073419056887014106811032841653934331727397868539471959365737674743910437486592.00000000
0.32500000, 0.00500000, -45443092248385200691614780597031408825378976238324471901224332261815148671940011799769772091676124971551005746333566462120850607263989333572667256590372680746659337163767808.00000000
0.33500000, 0.00500000, 45647119681530909938250683909298265376503483682472158018955987874119608010579842405000816883119244508047813934076105734462403737255623986134996371853107851304889402515259392.00000000
0.34500000, 0.00500000, -46313278085976639811855464209788126277075336262999375972377201043967590530217496259221483047883376988648761870711821324220072943729883553563200569792669367175993064551350272.00000000
0.35500000, 0.00500000, 47487135106017372127511908516797763251041883501634488690765366958701827641167017764688324082452424412343179514681095447320250644108774394241781415529452637623091205268045824.00000000
0.36500000, 0.00500000, -49340616304282626625649998127402844511788943268113138999393954712639221545273556108074244686433328006416750283100772241047412082243331606418429991586448415879558192829562880.00000000
0.37500000, 0.00500000, 52101809239581786445548247035702601392011196472354072284398679805195365410466381054368676269652720733025127878510614857360834564594583614401163993125619357335079527223656448.00000000
0.38500000, 0.00500000, -56040722574689126875939855629524086013648076206427357497692601765585864184646802791839515611508870291462489981473323640660367885050624282080870655566151465252128915080609792.00000000
0.39500000, 0.00500000, 61526933333670938753010613233085448792081096756643881706103689650306532495608821672593873286228197098166657190482435628244985868358224514556671901144864551811477679869263872.00000000
0.40500000, 0.00500000, -68882865079034614182200402576728031943660717352621799359206960109434910352326436917818264355638813554125720434892194717577863326756345241442610123355149945656166404432330752.00000000
0.41500000, 0.00500000, 78062152120663341620888206462537557749219021373484774940766136687731639762138080120702404296096593855816722503402429198994175745061307065725549015820801632149518629027708928.00000000
0.42500000, 0.00500000, -88525932147477853090854785137075860811228990398217261753677725279841365569515128553719589046453938921273975616548598152684317069430306260822269398541518263182927602313592832.00000000
0.43500000, 0.00500000, 99481065699201489889299656929921357985555601568766125404666228312613188634513384598575272240499985674952291317621055132063019890820228456472140495024084963241123095766892544.00000000
0.44500000, 0.00500000, -110254585520713469332110986524935456462576170391914205903107730853236291404588508948061751154386645870639769985089736323555819844281656498510402664477177203406929356956631040.00000000
0.45500000, 0.00500000, 120486823346996922483216582446362625763113147362775101069026207282361794232113171702298992551244024969451936444513740086006511515090140274235048209201962619033740184419041280.00000000
0.46500000, 0.00500000, -130018267447696175213259108435754441045148636569325728619832316903485548989056113746791555768680077361851125517206988814979695974380930671983262553583960560213519869637820416.00000000
0.47500000, 0.00500000, 138606184008415954052459978071065835472020569154787841574646601056756165800023354820987332675214954622519892483220996574893169217833913156234256819225580083159770153265135616.00000000
0.48500000, 0.00500000, -145706391084366161705239383022061946410551438204291359411350951505418481064352767119294975148026656020567547731044654182935975113608477585899671850684178631198560020512899072.00000000
0.49500000, 0.00500000, 150811829037361664679714132570918918115115341422333670131569184248232571741818448221077488887190609631234795184010918491297737897514002991425828718849378700113736235604770816.00000000
0.50500000, 0.00500000, -154207799889216352321959251627769222285518973644801815045704701188218017394425634727899443623028929029983473723818857026772104716649369702394011293964595467082938381150191616.00000000
0.51500000, 0.00500000, 156725025255713086393901758363650506544451543275752555537878102349495974167170771086350152515851429815585386182683916161632354274135884417110381849170077789713197124567433216.00000000
0.52500000, 0.00500000, -158746096007496616409034395849177305852948494739004777460448276544707696286835570013149128422896045421145899195488410931411131783885537540575844904096456593496567162574209024.00000000
0.53500000, 0.00500000, 160019073975770717511735906691543671268552945387123168754404984545100524739029716385774360168567005896138554614098350659410329041402894320645154633542941813949137268152205312.00000000
0.54500000, 0.00500000, -160001717426056742865797060886807919410163582990186448895476335839834932002990668790897225520480964208986987049302952666721787257356375524744618658154166385073398127366504448.00000000
0.55500000, 0.00500000, 158229983458370636663370254074026514050240092536877405632428390847065867536862088915402516135137728596352685632693970305872376741741065430176862894178601528926049372597125120.00000000
0.56500000, 0.00500000, -154319570562887332554013883914962159928108857613178303681936045903710657416481018589283068570033781063228706471117984307291281981195464575349961543167089996137923966853447680.00000000
0.57500000, 0.00500000, 147770573895800400734746864803845495385740720741158267441242530826201143661205126215765542538100432933502421339956239406937731338673647911903460956394926251224360099763978240.00000000
0.58500000, 0.00500000, -138569740402952636135771946794693983305646780842831590996206107192876351896900658909435107351729898547223191833791463194319155093093602879474537787741799368433880796225339392.00000000
0.59500000, 0.00500000, 127377318877620996827367486875242588239614698883625178734231289683895691671707574007742547083968695674167576525863828841279222752481956915269202269246685720778607492042063872.00000000
0.60500000, 0.00500000, -114819782424354647427201692154388493767632551421152487404709107962231370479708678504977130543227505711253574686047137159239298498112030720440821275116317218839259928571412480.00000000
0.61500000, 0.00500000, 101316051746534074300758503987934246306427347164475799586053143172048740799236130952514552628264807441227478133996884231789137219900661194248356999052130365392894383674621952.00000000
0.62500000, 0.00500000, -87395365245879760242532957966767884544644972719045243857283089115709372660256443877339779450778096639184429954431585018534678502297812056150803426282137380175535035186675712.00000000
0.63500000, 0.00500000, 73811916284843857534476329291843294242585991043667682695703021553899905965732350346787420218978215219064545440754073976242412093537305713158392504257449850631471575481712640.00000000
0.64500000, 0.00500000, -61253608416950973346999555863980579355612805030237675922696060619032228610055149480575617255113720748377369419952056411908915037544193923506240933906362759431120745155002368.00000000
0.65500000, 0.00500000, 49946028680053810464300880108341406522984886157168527822208555069409671886188105755261675372143725316636756168483559454444271367620986072717405542137688392911760026297696256.00000000
0.66500000, 0.00500000, -39728644528005925432650162439517841443475089189093107289402073536286081045696109855981406082191576735378293959431944324842658397830619863005949989373164390877888580518150144.00000000
0.67500000, 0.00500000, 30462761872208090951847534836668160667575661187399650928213759034077335404996504443430745511021059920474257514974218673158592011587184432609108867559878891784508493917061120.00000000
0.68500000, 0.00500000, -22169290637662970793598972253998025686241171937912017136859238970540130111798302594163752628356583244600970291450493253759908863491463844099611557836871847405739192858181632.00000000
0.69500000, 0.00500000, 14936463894746345828665754793531650101597333417989558532290636792136376694329454290630651034308998195617951612868438196704580158126366422853403150957177283082175435241422848.00000000
0.70500000, 0.00500000, -8889456403331432362775756924644925267485186154127220183325959531701651519792829005214598262385273457220890312020623147164868999288024026420940964460896302398862151324270592.00000000
0.71500000, 0.00500000, 4150521449102883365937738580721170121403439321981951844815507651090764290381549227550215748775436471882259382618519360895707716503276888768925836858717465020145526707847168.00000000
0.72500000, 0.00500000, -698697777056099368693613174374443442529599932648962874559495462721622816876282996253671767265314010220324387769114309252769554246285722408963681911038648388728476571533312.00000000
0.73500000, 0.00500000, -1671725811549306062347859690619732180867530920832117453020258979484804640086345079314534065314527754560578391710382457395891992413610389796729177752579511574047602438569984.00000000
0.74500000, 0.00500000, 3225011754531507538811337905104580574167114321270548459716713312229163483907168171133442535664692153013722837875151669574957943599713718019220848508278377076471951760818176.00000000
0.75500000, 0.00500000, -4242609019301772774584266424685469652199070869662424589250006043757166652832198710226532339628386161483719838439401905255147435226989804379147533347344467388760276818984960.00000000
0.76500000, 0.00500000, 5023667555833095268555406567078965138338432602345780089521131231354985130935035179726540503717379320111221742342240679882566883375784042940643142546554014918178693732892672.00000000
0.77500000, 0.00500000, -5152265820876959990879353643539563099299618952556179825318959243263293503451386353496961597317180941688908275267491422652976266586219812393829150783750817961241761107935232.00000000
0.78500000, 0.00500000, 6587316475530926936597076917039537984167660256409939665708578970003781726984697344126796506226493104624625043003541448867648693331578155542413727111124810952684990894178304.00000000
0.79500000, 0.00500000, -8151321462949948897472145234217732018324813725344638016155072675110809207879485162910372358533866808305715449986387233330176990889896424464192123513173105094351110556090368.00000000
0.80500000, 0.00500000, 11202674078842808328989008016145154144092850139718083947544184705908780344057492142132828034114766614335019885008766791629342400859913321707153191929795029307006972808134656.00000000
0.81500000, 0.00500000, -16316428609743916426859157613679121240643531534682888976537603784053172786891833803553467623466833910768548238171250102835989570993195082702932276769504173155456314794573824.00000000
0.82500000, 0.00500000, 22030190522986467095654789742867942502031202679626001185662629718939713751947829724790465159576334633595901129958176397646209569436543724490812369835242507983609227294801920.00000000
0.83500000, 0.00500000, -31370376222489245985171536579804921516161207626822330370695603230446551072790518389695741696692462856841436578974805320076308143853315753254665983015994306175565824738197504.00000000
0.84500000, 0.00500000, 30025590401531322574584176142504225847202767510996833742280606643513406022229930271539004030734304688738628408821437415892600048948736184856744776736123534064551944316256256.00000000
0.85500000, 0.00500000, -54949038938191888281969690999494099779558653415826477650246735320319516712500289666693990012149981333053764325991734950426545233229228103326502940414224280516155745186611200.00000000
0.86500000, 0.00500000, 70274043391132262422615433799224501391320071195546511557835854975128879223761097384623921831349380865027644254348138411013386338167087207926589877544288315321786545129652224.00000000
0.87500000, 0.00500000, -88766367978711181699324646571027305828630097407447080866718960912143850907890075185870047977805334136239665925816527957099162242701309315329673798233211710263077571435429888.00000000
0.88500000, 0.00500000, 107479917384675930189978876930234827456632655470385164055692428010131047693352096503007125918458481156470408250737507569701628496965069123778510904894586879265592572710486016.00000000
0.89500000, 0.00500000, -124000019633000442481562622143936151957063613460432425181616137887583620670212385464931171786916005503817490161256285335515663938352900097275618105686626037684452728525291520.00000000
0.90500000, 0.00500000, 139089256782252947900733864664930410360192231600157631241015722955782519045609867243714354859344361973981013780521966409842564702242386254501557891177886627135599219251871744.00000000
0.91500000, 0.00500000, -153873817031261296637376877560125942530732542552781521816201151048071315600564050095146674325062673443659675004784754742979334631588193306452392946094591687676370936144068608.00000000
0.92500000, 0.00500000, 160239054109844446154553578047064009823017355229068102702923823061277357728211695267075431086702789093276277578234984117666564981515891469811623649363580816259122055033651200.00000000
0.93500000, 0.00500000, -164936546198770190033556456386009360497959467233135762569872318233101327043105555888178893862658458738032887182793738066833845814825527343547934381918027967871611231778373632.00000000
0.94500000, 0.00500000, 183161053649560950254617648013950749209122358178607533388831468318042320123349714100411518533726142381651557128845140304048364039619359085313828360016781331300863614759469056.00000000
0.95500000, 0.00500000, -132407413718378152293598133011435039724512178229192942902995084615385333458853018447914444339849225575736381719452022006350052358217532004886892546698690840873573318033145856.00000000
0.96500000, 0.00500000, 206201922434976360943753877699195494001820168138650182355054109789255264195772312837934156462611936836380810972311330079094731873578809491703945656204749578578453791781158912.00000000
0.97500000, 0.00500000, -207690207772759589345770246450799027048199262720819351655513078270442501475769118051485514915885203360482222152983640820450311395582241281100773317618104201335025805501136896.00000000
0.98500000, 0.00500000, 204002011519270074502167571594387138254777721142756484497501020111678014119331504677624535730363858577479545062451273174133039211185549368966276522724758515081923166935711744.00000000
0.99500000, 0.00500000, -199770921841598571495172359509293257277442300019060894574729068730562529301835174454282203306598469161286490484999450318496724500155659785773031142368245888392533302298279936.00000000
0.00500000, 0.01500000, -214703470030053551101567875463437303400645932148173256264450413263489433078883016341430518116441489333130970068938284898790514494940964598598250661071142118209761281444937728.00000000
0.01500000, 0.01500000, 200454378924878382633526935032975244603370948135805057895138760619187900857233391232245512354748792633288622789122756027991253633611564149499582211930274297185941679503310848.00000000
0.02500000, 0.01500000, -179891960526996655342087925725001823082501259767098843749336086035121974966496043176256694285470656481607135393076851489465977712741382725244494886604758213239467388721692672.00000000
0.03500000, 0.01500000, 164702473047098239129680286111768585332127254475036492321643017212320556034493662219869344041258438851494404150665872233070121630308265789758136233071653191822212632454103040.00000000
0.04500000, 0.01500000, -149043957359895705667215082329766265676027131630432676503541432523680270107600548858917240434403889268481530318489912222240715503385223304789081686145502517114615214939045888.00000000
0.05500000, 0.01500000, 129451693147146265085473268355678782261548362924484793820526192968149245278878540140358802829934605508565076303693635013836590437917461895856810322125134099335276562336448512.00000000
0.06500000, 0.01500000, -108891610099263311086493308145990956066072058017738139389467874001693549589335839555687325669880424011966367891988384408067999595471022947241591795275990798490312904349319168.00000000
0.07500000, 0.01500000, 88774338235950322293470687928803807889909105734896690621052634996147378731241154299497630379608408995767804780850379817948138661964545267700507958006215911407674235461566464.00000000
0.08500000, 0.01500000, -68724760170961406560968121059481733282892495008701748488193019621946699070949191204985905980318262230315454725763637095082863359371652388277015501790004473587360948188872704.00000000
0.09500000, 0.01500000, 49229115828543570014175258815599962465671530541664228411103502996597640531341764125623692364309354692003640756030803120514001591625889091560581007892207302826229897925492736.00000000
0.10500000, 0.01500000, -31305864598083457606371159786830689430517533980870599754355504369856541965625265680627408408900377367609867816052073358058137791471349008832383280830836702293654458058407936.00000000
0.11500000, 0.01500000, 15538514644359241273643799174308760794449022347520082749737149343804116934746903079185225737581665664196706457496846178140350504596263238539764136783718085669565968196567040.00000000
0.12500000, 0.01500000, -1915327346547130463837704344783722393925061093345017139701569544181179133691964645000462590768875359059057609702292024441527393622766497292256963450645503717928241073225728.00000000
0.13500000, 0.01500000, -9967234595172763503781444218698184077059047420342780455998800105898142256317553579467270738197257747990817111515516189534879692454723586094711646636389044473830149850136576.00000000
0.14500000, 0.01500000, 20446811843160445385958823305023844370948989989197982628280918189683258516373668652990354077610251934620846780269953744422436987199044736800434987555683348716411542172598272.00000000
0.15500000, 0.01500000, -29892985073171807120976494575350995967105090384061905406276735166161758769195039150398949057702607756177977641467971518568971922417594074890253038658736156256521484905742336.00000000
0.16500000, 0.01500000, 38749768415318489243514553957134925543150000726745749369695300597844937745338191297221477797312154708569851986102364340937996451271029789897001327483810414847541485288554496.00000000
0.17500000, 0.01500000, -46852836709097229865955859173902744094105321172052039199783732227349438670727729164871495561101198275479224205183474917231549279585451691065781137759453542687760470020980736.00000000
0.18500000, 0.01500000, 53410324797863649441535152811648653469726810370380917013421614739802344441393535694460897150332612952775433662640565826736263734780856553860224096472450250364204041294053376.00000000
0.19500000, 0.01500000, -58011300088057945731213205584954972070227974367530046934752153868717504834668529086908310459710167446167998943793172462742110120416762580516974533095177401285861077185200128.00000000
0.20500000, 0.01500000, 60814125484000459456986984387688528846765485957969754529567010526794329986779621712706703692217129123635065156356951462345700346488981525347497606359249100500132993806893056.00000000
0.21500000, 0.01500000, -61908335471864470410263624074348429426412005203264612550248132905336075525964224230314977250854099123830537782593121745279954613357678835026204124667817262045477060827152384.00000000
0.22500000, 0.01500000, 61252816089288049070409679242418662558869898565474039950449044028299952982243507382787505925753913699822824968332863787166041656313940492841859468082297249599862338863759360.00000000
0.23500000, 0.01500000, -59286702339144227440662241148015423023144616657767591069530430096460455629931028234769538982383756207702699211274747773169024907644094004734540081546173136616794918337118208.00000000
0.24500000, 0.01500000, 57027300221992626089353534653033831815000962939632564334009220721146223400448945877969470680421190796652401658680753544560793858140342330846080332396584219501091953303355392.00000000
0.25500000, 0.01500000, -55156418125347103340260291749349278222213808615287181349820256324382833650799289655450807670916129541363655745618939477767621795193981704953882335208659455130709686749233152.00000000
0.26500000, 0.01500000, 53565356137749014955058446982862161162947707405181375507388690650892341820508265354058892314730319846927897041165662305035890178433970524247607982738059137011909640620867584.00000000
0.27500000, 0.01500000, -51856365920696017107201380587209630077521702791448019247130517531531423016529519181379864345789570939496448654185984843067927101106562054863128689435476155789840107987533824.00000000
0.28500000, 0.01500000, 49768021950409306501992698652101881180153190697203852244708267573389809261233469003967104327878432553008162474657293153498503712959625688741095537329153094309655735324114944.00000000
0.29500000, 0.01500000, -47481336576482919956438788519705348458857363074700295716501016901988200586298067197562012051137016448570419688713327478407233532993298123502160253854367168742360373688008704.00000000
0.30500000, 0.01500000, 45553945849599412308935811152364440410149801223329881162807367090440917520601531361536277262228783448692346369424633263503359702872456236312633360252383746056359562277027840.00000000
0.31500000, 0.01500000, -44316158907099959543272924837885060039968598110612167403834772110711037199281560103846228812649753068780702081845559005614175150268934459333681575088357855248953320262336512.00000000
0.32500000, 0.01500000, 43724623302459218521722212687783776528290480250928247298439332680506547304521295437586285790730452200863578013301471030776687467275953861965151540363686255566604967497170944.00000000
0.33500000, 0.01500000, -43717560194208206180288390726727499613293845748278416843698773418822203528315135825252951236979012304674441180779416418754225415761361601813461555265803520793074149944721408.00000000
0.34500000, 0.01500000, 44346666273621223107612808573885313060960352719974436267247001313821825618616364722383574812834693524086966792752053863205935398903475990498357226260660000644061211675066368.00000000
0.35500000, 0.01500000, -45737600249341322404131301769711113928549577906200254253024041786622767440267081584157100979905092088651008576218232644790914249825743097400608116660359539356400643240624128.00000000
0.36500000, 0.01500000, 48031316374649647495791430769337906927082846938013448463024908986103207552823505888786699621270202365585180004599211111272908547786092542124790133934497736994178560365166592.00000000
0.37500000, 0.01500000, -51331004466670505666104557069846761278932562261561169715328593247329194553514681783001352194595026002122592993925842570814055170905727536257655257540013528499131696594026496.00000000
0.38500000, 0.01500000, 55848541427919892307634718146461450286215295011782094447002130005869771876242708965111513698811044742209891508103670242975549231241074790564211280612067713435993383611924480.00000000
0.39500000, 0.01500000, -62017003832904754433369266486703397546176974655295854143077219100606483272852385470152432084651661471540157333401548902690533935115034148409763357167101447166385674029891584.00000000
0.40500000, 0.01500000, 70150720678326148823607311335126367103898819112604370220450016385578744011422925101747430944744982619134781560678481645594878786670131442700523045052172376772334549750251520.00000000
0.41500000, 0.01500000, -80024176691358161469880210870991461807597835884886252542774042124755284471390263153769072634322817106430137611458686727269435303439402183509966100418991942851927904041828352.00000000
0.42500000, 0.01500000, 90958274623196394707905520935965575008024223818402506557287837020433443417104954031849065704846986657024545124197653575488763646191079774894293669505515774533946970923335680.00000000