TITLE = "Linear advection equation"
VARIABLES = "x", "y", "sol"
ZONE STRANDID=1, SOLUTIONTIME=6.3, I=100, J=100, DATAPACKING=POINT
0.00500000, 0.00500000, -250664316649242486136455165802464934968670469454506210336670004120149686125668719773496346759287815244623862533307062045534924304428477539056687308457055873678835591571618737859056324122326516695494042349834783986891490041758207253076038496326594885611209261589436141819236204735818959403790368768.00000000
0.01500000, 0.00500000, 238824002991847525144984082886228607680029410994559233162205225773546535231596485188083702607104165537323244223867701061799946054512737217575357166837905424635636827775819307990651246623225083930388590978545571650423004711714754040378663366979247216018941407525446780854585436363550940643492626432.00000000
0.02500000, 0.00500000, -213213932912843916001524827730220754630779877739052653385444287919324812328154566650600528031423459919724993718974933965268824809731331967353485300531114017066522614447934332893551512584172683187206210651376112670745477472427151701550691137576746492294957376922420811338973913198036501198643658752.00000000
0.03500000, 0.00500000, 196248068020114648204436455605822473176217786075659928371363522537183477986728192522390715269921003550156607037112019583709973601395154381169953735320296460975691247499731008229358625690270827479328202624397549292228536486676396428967092467121244568206265429354174369433879687420073152975946645504.00000000
0.04500000, 0.00500000, -188531406598830068348397170419144405311216626233695874926813399084401383169818636706304777602673626291619047434078724371768623360038325350699202953559943263988910613020412155848967693554532022480281884141896352543577501488692585039801047781733311137470769895277731729007707139278754116663339122688.00000000
0.05500000, 0.00500000, 185375303947225839141898540321491411863857178329629996338069548674414047771444763951697534326482548427782762371153709785081098736081556539385305415249268338997751379826073441701007517016421903893965143385098425033410530158923421517836575791591573010560538014367253367429594171432788483521065779200.00000000
0.06500000, 0.00500000, -186769447963705637949851438617175206403519429457608482850771410803542851589528076656285962791449982117084101920082657775581939217680661922027887687715270516357207357587769075246477356572088395544630594920392318762061732090616334571907760819051751092448626158674128671074447022859963856663103930368.00000000
0.07500000, 0.00500000, 184373903022539083634571089121312917743952827568495779800184061651002197755447765236965901664205676858586392863736132106151768052136051617564360266597667602048959608220722024353603840923438154410913880741160347404882414237378745121016709340953322315337399439403417867102000556855820086859031117824.00000000
0.08500000, 0.00500000, -170930902022471162226377806150959423323108360581924955832967150853833939196887699764806721390731621662403541140902430880603838510447903433679101057640238328417048592260946725364349161495181217736409388451017081869077555884340574580915940772579322395946102719808497317168600965634838683067428634624.00000000
0.09500000, 0.00500000, 150283431275919080560736191819923441902880409463270332970000545723030479805925699471421397605492824295130511872512704080396687153620580738109838240115934854795836733540990738002134865044592622247025704796458650751755676786874524365179782888571157451291030016113432713029280947971194796570662928384.00000000
0.10500000, 0.00500000, -133678129211782893125867268945640166869442728732099605153964497513447793891490947054276882155318062988417090402321097073623019504236372681689651884787356585738955975572070289337802429408331915181316651677541585798721024437825157430569569850727550194365054639444863771016563662500424368139416895488.00000000
0.11500000, 0.00500000, 127553515661808548582506042641779760681627044700055566751675104678246266696185675024963200391872977622193498389624995005017988334657801473576697384979368316200396077705473608091230292470267266698521443885608207157743189230444776191194055552850957127656028455932361267551753923099812827044453023744.00000000
0.12500000, 0.00500000, -123896745216465481063823270205233088519548671077083648824847628198648125148219960725551088739466103379939941885835078402487792516093157530285306427998264175956829522122866349833284666139327359283017748300132583531651556265393281749017721179800937489072979965167393294184734236477563203313561763840.00000000
0.13500000, 0.00500000, 115466992717539874730718357213499007110393952162359058843597612109259581757557789404194903536328414323342804139865870764001032232894415752984390412300050495368033609503468838562039031945104607872608979371525758134640590914271959401084273135310240258248127356319676507057351835596187217920790626304.00000000
0.14500000, 0.00500000, -105215991221987107343928927073844879178777539187467574530549481751460120685957507605192015114277553366769323515953788834326322511312913842967214019668695138219298801639475928742635881947109465243102036940612463628606895640048293918712950908309369853123015445725468468702488210102566869465798017024.00000000
0.15500000, 0.00500000, 96660307507845538711733151737497815133327051402762516567261638246516575553417801404380891590594736998164118964624840208498442938164033821473768679971217391950336929930402072352044586245810396790415721724567342299705093832903029966925879876341609171776934954057056157236858424298943513097117106176.00000000
0.16500000, 0.00500000, -91187936283463148075309997347777458643633979393318400404655390434827604163720873947305481088187609338698613946193953186517777662827111986626619657408714215961305071532352590911607524692549859360895636533913619183049645503226968321610903312380404579217515905577867235649398106423101369375831097344.00000000
0.17500000, 0.00500000, 89508054851686023834320954474166627957593492952699922233246171677805600221932871909428609981750048219723193834341031066700359423814130152712501646773340509264663009231076544813479911386375317251175358064307012090606318764626905352186485385177391581575905227526763165471951610972312274955050942464.00000000
0.18500000, 0.00500000, -91188075128132885477423900747142807056846916618374278413104383840887157855144969553101933097524463152726302768287063754516967151541290890674301235869255301561184852416413051921559742352509557124386493449840110997627928945159904475511903238214596169157011076939881029702055855608813951702890708992.00000000
0.19500000, 0.00500000, 95207113998152165645984884560059063175506992175966984044729509767544366698718627175910194246052880430441855006600822706914830590169625415298435936139797818988720676315905484216512236674487710121962391312019120910055785063406564765015585578615028527528014796659745904922565541580555273736149794816.00000000
0.20500000, 0.00500000, -101205500025189884464013654674457854222534205981039104557643038234718142097733205313440673535751400152906986079900857382821755190497365837281120138485348187295961140045251738557672389516468629867341954498243814621859906122481971198392431166531965024515135598947107358108249397058756143676353675264.00000000
0.21500000, 0.00500000, 110276365508398056141136111222841945545226525019231912799222612457235903153584988305176583444515895865666389996545567403614207501247438659645373342964727822173781029290141520516903475901348940673790197829770044808079609686448053177231802399835610274833131472435755638246143558989944127449244631040.00000000
0.22500000, 0.00500000, -123326804446947837497094636173330352767077955452552572584535386519102250474192138655051355866801603383265381991579870853444102471968140436853384102179690194308457045862036287244389509009566093853052494086046494114139978069486320200923691213187868343645521442923656913114710545165155673306180878336.00000000
0.23500000, 0.00500000, 139021917249246568830571531246520096662188081118179809411030774104210704155589263332375074468151198358513918570381165542208680035040690622590763755176553089907279275902939486319350772210500616202531089385676413645640191156187728186859493965574250099428987683252338530144611272067411698833476812800.00000000
0.24500000, 0.00500000, -155069994176856580370723891747605899966089925995028052036755845918842249996604323017047769513258446745171468028431437458153643668434435792271102783582172173811645685282977445594456764352012341102357030685657388589645888513219874605098240957641736904585557664406396011923041514804545989906228314112.00000000
0.25500000, 0.00500000, 170603794780634749542722380053646959803472395735399920549741813119900475379856803155928267414230258540469479768814412929940306250184413622961748873736580867849044922212588755984394950778069156231676978336152342585293280591676374789460435082401102131043051838107942967799359200215020424390005227520.00000000
0.26500000, 0.00500000, -186217098475638169535325419857232380516787765198431007836987372254197216874629012964854422667157992428927190884663465438661355575598798365972253918941161709150510465475670544497172341096213371491203849550835854049139868386252201723133170310045535721529888037408193407436617566249767410042176274432.00000000
0.27500000, 0.00500000, 203083205513305999888871105247358365021900995245620997064454547224596791518150367533542553081099789480824125265438381201859001031544310268286533490668341362627102280691871017900643487665003563203570796312094263748414386524872664652446544595063392014907495742448681891307137878106333228847410970624.00000000
0.28500000, 0.00500000, -222379302073553885607000087747207843071281188472196879929866066578443150754029743539399862804412690863620272805474595580631728956896583653988650105566011010770592320551884912604240037983212134770195108362212910941014043274145894884539885561296642538060177986567365159809211870658316523303868563456.00000000
0.29500000, 0.00500000, 243037544749531774993121238083550659217588875406316261687796088582828783375695647235808249644508920727532518143708765931328292955062787633671935964537184724356993265210811707134832410482986854192153848841533270635500632828143764137201073112779776740450798104000854836006805031979147522588337504256.00000000
0.30500000, 0.00500000, -260554845879028240703247310093739026938216995435369275292028671608739607587018974584092197513022430752706055857850949058236619460825506493631084035950962622010854559214088906411595129128527945276913612305037834810013853189524270457731239842238026601735791969364013627536034745289270934823206125568.00000000
0.31500000, 0.00500000, 273416477233938528929562997876816132765461337131018216126912562378423167923580390651006293668655604977996432551752584985668451838457996533387365047123614305582738242778271426383891686394719021006629471756386716814966253126757999214870115611262099715524752116744259241606351461648852381877640626176.00000000
0.32500000, 0.00500000, -287238765416921939337322154735415887011197149951873533505419184931369744298484721644802575072990282910828571618426185959228354793786663255072736887427688225931437480162460275039692557179188242981030411325802359652232091391757053402824536683579103602205110951913510292615436165732385633982377623552.00000000
0.33500000, 0.00500000, 305025715235234692996918143148037557636663625028993434818649865791029342531808390526120016136872042341130483258197727826897520521199406459326228417622564070513262026652222828765964733792622942070652187411848968607817848754363464133228004386826597978880539713906630203228470908347767007945005465600.00000000
0.34500000, 0.00500000, -320874137044870831259871422710476890799789224684095590599598775577390062098527443169891037166711649860377096156162908107082254342149287519773801361998455487975069165315694814681435081406449113027844743105883112059576982240211762194284316834606235723933666044449082945803510079833782738960194207744.00000000
0.35500000, 0.00500000, 329407983323452173227909766609370890936671510228046010015492792563084813381763488600010698710502093255488504634578824542735745188108577302531093857969995495646223965046517920336782816345645254369675231650101339507535356738058334766686762206265028354673535101962948182242421511508153717196800917504.00000000
0.36500000, 0.00500000, -331290379638424995724616090980828894792027502884643426585491760492481329996859422196687489814907613893967754897333081081105237181620533220114091337283338622066951926737027203794248419203604877705713974655078654494833709285302069385156471590348665632726932902188508683171586821825472697934461009920.00000000
0.37500000, 0.00500000, 327730053995613110674476559917505211157012960711502365230610944139329995684973208047768367020304166768288914243025641337391512956813682191055888815378374003165973223561811747369426361150758312292859631213597687560316329773216625674261523419723724479161906486682805547288707618525829075219102302208.00000000
0.38500000, 0.00500000, -318815324561293518419739330045447313604367267509092207308942527220633998619102612727054608007370398196710875501330112341204530648352460971723929543623677041948190890239134565986589550311360321011861698846552374000522352671297861008024178372975326862461913578528857035664912060821576669040748789760.00000000
0.39500000, 0.00500000, 305954805336040165321742031100194017092191174939826985911832588573111294920728818134941285035510685284376169977359226967489459495273214464898754435557472543368975159873625697164640767626667611214635928062413993684630726884869365354508374415602960531001099515694832297309090111757723855524187865088.00000000
0.40500000, 0.00500000, -291119779516190407779016042361129603836965234171236168215802288970225117281702662891475249783272936453207524061761988624785297661434910359092165875218283192678888262611465099221329501280690600851008905579843734741737691473830188140399653089086900888117507511693948545012671518454770868455018070016.00000000
0.41500000, 0.00500000, 275081889605109650034490867367070202069330260118981875234861593210239924317866589002205673185142648077939119323615264099528900025708941171034057715313307899392306965875742434164799374763305114942259841096864702558613588586512411917210592930159715471864893227179320028735937255647085240101992660992.00000000
0.42500000, 0.00500000, -257488613899122103293148322246218973721503439054972574881260476880009374208848397331863415541671838114795351175717288631933366320634355314823718851183809441145473116368909744436005209740314993747991255879544049812466884422924460209829328703443091203750001958512068089967612592056502015994305183744.00000000
0.43500000, 0.00500000, 237767762885041002309345863731017645348086864650708374588443796999033428351212211417499622579283469647254211413900408783338855251967040341818215457914170190225633070905797909318407391952123561731378203322242518335218842164794234950958497827474115350444393689176365926102217374033253527576287117312.00000000
0.44500000, 0.00500000, -215978263298784292584080822279697297164819277624937550598177700691043766036261727977547788032645783559433454319498487151317954662026058731699770528287006975459474960146127901286413174083369768390779860826051690336418813766702347487535924404587338259608896532764461684191468901827581751298569011200.00000000
0.45500000, 0.00500000, 193189064680248248180677859286703167894230533817828051212348440088118221266768127944243585647060135685109450686144622188713991915838778046030862546752625929449598571354842403266149945589175499069029983858340234069745843330562118324316269451267751312127837207783601705139141084832869897569575108608.00000000
0.46500000, 0.00500000, -170858680047771997812995431929598307691498115076717174419549802590616115267257893499042385187808320232060669749789536388027048345731385175017273109466960549395146660434180924005365506327658479395060032075835351702789416677229065308737838502971532407571875396327834231994419613953326511628849512448.00000000
0.47500000, 0.00500000, 149742597782550331627422101033975620969886160897158896691821398860215531419550846982203490135644634272143704705502871703570220002075690073602727622984217795372120440638641644083995660498253566515537385050144665528517178783935675163726339778136247798178474648687498397693801639905851954319272706048.00000000
0.48500000, 0.00500000, -129629473598312606373975493465219508555713095773672450086362886820933066439936690479309143582479449696097666822354808326632050028436629496909133545957834281551434161842712002621108464866930308254979426779679703746663827077003468362718199940692500837317503579416193985633316651233676804420613963776.00000000
0.49500000, 0.00500000, 110158248435918301622578633667623131785377283449714043250168331932848798590109707123547393627971076206781775419363805660743535332390473798757774811906600189946408344775683745589275238560113278302944705117713673589873047910573195276237199027102620968239655172196816394008837822623407967148005392384.00000000
0.50500000, 0.00500000, -91434271746200880950302863958999059029697726006526418368113196151990641289722954800535316894116798756411015305178701993410958880048591354438339471717023706014495458862303403650010950254115090094532093148068723483579231251275917778107362948472187149757478439053867740736925774776691722164396621824.00000000
0.51500000, 0.00500000, 73650288381792644839919451106645681547171815700506000460914862857645591852110789679669355136182474383949952560382564685202480308110408249046361201014627637422120773445815236895403844835222719315459713411251446833325752263349240607811167712285400004633022446834687813411314632788703796705529692160.00000000
0.52500000, 0.00500000, -56471575289877631511061911001504890274861324757296530040561917162722099275880892725273931239555344025739272531640781437573136897909068536441023540242759980000672196218348234637867071785477655335328187223186915767644276427710837040544932482973631430726155909729159652122058797850671443962977320960.00000000
0.53500000, 0.00500000, 39078573471058548389080219684148747342184279515923648825746352013163615771905079825075318569486144568585256152370747602769804260894689864141758947274429622871723670731006985145741680515850349288749523055552174510521244529819310228527620950076120381752008398151783739883912767345570856742877659136.00000000
0.54500000, 0.00500000, -20516969611342919162816674750140884949374427138275688341581209423997806590406389931539873066533523764058391695324856055288981063756595511628890102032471962561359660023001146215206573061514300088508210713742735025346079725357388029755662435543876802651518724414160368730271112378178061589282816000.00000000
0.55500000, 0.00500000, -157770514405291687722349668508795829788318915906999100032048697714981096567694679360881062345898613955816107422020704716763141876502255437812616439742780696700141380885847089665800342557897634651219647835293154384129434765444932638964175614867712572288123610137844758345613440320128927769034752.00000000
0.56500000, 0.00500000, 23755746770068373663990076665306722263493257950300893135705084326173990893765909162066530997902366741926043380417278468144834362343866478923671683994200343585729202931660842561619653131174952057499440205960031031967835403943608803948184984510246488636455877736987819208084386085091303521446264832.00000000
0.57500000, 0.00500000, -50695162535277561065884425525335683251675226378463983483871407631214421176628131361700247603660849945661627196898101135804139043614297725162991654178320347453004655409047428652187912856597364928525982326954847572966846349974225082024096802165289355768008760597473529050116425448104477458708824064.00000000
0.58500000, 0.00500000, 80790188493165466194686062202886827236123853518659575922792382686463902928565243475630961035824056476624632283994322950138533422846266408518649195964743983082511694739282952435886890806991551571208546331314298160365680271388027354939047578503781241242874678502854420210716989271912603185708007424.00000000
0.59500000, 0.00500000, -113414288117618366413889895050552548238983571422323905179685137506324557344274502118899369811164730811598167021202296102055939464118923664616268539221839114273231324040343134528488818026554020139907099572940218592342526551565739259639028405188976012966204146909728918273387501726487412230334709760.00000000
0.60500000, 0.00500000, 148022303230450800034435888121735155334763887678785183231769769906525501344526998171479885799235230479771195470877941407748677153277350106170672086200639896705728061986452168424773794150725334899454940718927067699578407994296026579802343983827206686703424704043979652527514620467359928458326048768.00000000
0.61500000, 0.00500000, -184737332506391688443152259807980747113986172134852795786395404986389455479325703013921248103906449066139749450800553704830189524073288758485690661502886596160861481707682682162501267524170047104363961319479458416416679188054186377572836142313258027843400556874619009339403305852136503899355873280.00000000
0.62500000, 0.00500000, 224621375157750839724518676415588677736635763238169194291337335306139376890441471187914893227150286058007269049726823744996264987498145436695701144247525413148174385635596282809097599119617200610755371801628506793838224302733745943382534036693137605288268606702779912397653903094287422968704270336.00000000
0.63500000, 0.00500000, -269410436467998331107555184033766144785387499517498748740215930747914331751524985092132698370077788027031629449922865393255868008063103212092473484366151160562472561168809312485045714101229252050642635925665393705054843547362275617361304523424910379252043424932390347870075710353996125526057549824.00000000
0.64500000, 0.00500000, 320548658619330478638719339872511878613316411182432521846300448690409079722518702193535156779769499748721296130026145016824513759853551178744556639459593357123417437529144096156254232521422525049409253274334383562469129812727485895802635847041925696728783266582877979396354940301203728451426582528.00000000
0.65500000, 0.00500000, -378055323915830100141512515112591643202999784436553693349512372471839660466386104825091457346547089010907195378147913056782952833196279114614151344100245602359566884547671025959911048425241336410526145034667096660221746022941609797916561283284876802668939613812511949637898775637508975212084854784.00000000
0.66500000, 0.00500000, 440294964631172848759066204848056039829199084882618833939842434014921578681584160734332711761762433332339117371371179365677539655362423513409283196364108291485789490457976770648386872325606706190755980451679477820738019454557947492173780648439839461100720130304739727628659255037348009413433098240.00000000
0.67500000, 0.00500000, -504746474015873548831769027775059466676443328875323916525333205928296085621549530055252437318862202440493192179304063892387134489879215080237261016343408745166712368865146590006885450324246804800824003580335545570632667494965983111088883347271299134500207065514882372890688464835479907728241983488.00000000
0.68500000, 0.00500000, 568500805602448840380305414959666975798330221612289008587226444219737076024054218497623793298362940266605046411154372491211572652763256081532314747578035384267185182127132624298737681331484860504770205197554911489742953227979246846332402222257377689021002850697773671309876871404417915421955457024.00000000
0.69500000, 0.00500000, -629684637867094777035339261525729658562158844510735743050955781704100998046136947634021883835613958884938643856717471293076621082706153590728977806672665707673034932825497637729844350069272368546080802134428242480110685676393259570192920511015041003344440729765618101071680041047731429616354590720.00000000
0.70500000, 0.00500000, 688139560617465148550947229312939857398592180502513630069445995195331206588387704978681859282968205443575305128682049392625328989682877208359049321360599892423363973684117487754537490875218455536734993180218602736069026075497649461114477564732381675457867388579184491111611350181009326313924722688.00000000
0.71500000, 0.00500000, -743777555876034213349405900545886130175071203393646412625403436351320035803655953738568198935380560088541607162516278293568901927306455484286661799057964473357709910463700723281390222672018009884687575901406570671258558827764729902596552068674173272891875632171899093356327327596673424330823041024.00000000
0.72500000, 0.00500000, 795810838622797165945369394438659860636276878202902955250860520716173614467047642219930006726686620722141704522530521691369925296611872062899035388924041486374769627793841320884885674727009843124349300311003107136443671519612991347127925099724126097764017618736940571950762835807148813106081169408.00000000
0.73500000, 0.00500000, -836684649528106803801085560480736917466715381372452921677747869737162272285369696421849816255021355605357243327283074031034247673144986472298900274084560793139526207392755865599820970499810472714232401011315781870055087877065095381734424255072709223784902206869221026096671687498320706751782977536.00000000
0.74500000, 0.00500000, 859991370194069318570660404043649702775143895702032084001392794106339261321029111345890729438752357268070190893838185802631906648494131799581175771945976141060352474668649908749549155626108355564910100546378835617573876882603345962364897245048564213786096519083708250401302612053407384383805980672.00000000
0.75500000, 0.00500000, -881972003762022654107556881030182593738275091006566774787807815223417724123095384461578590054612923374519367756419980802396466753086389104383198499168487132535311669555066139881668691264011407166946792072113082512500633434110145258031517092622463189530920407714228522096342468782788798992347037696.00000000
0.76500000, 0.00500000, 912536901393527808529913755833915579951335728295688709799127917363193451428494224255824125894561727808608596061446317237014054547333159463702682927683197753147600258939562447276423167038240921139696303386829456456481572331700340647938405892031545864551330681470945442768174212292369421341749673984.00000000
0.77500000, 0.00500000, -930761900871510601453026879575935186064729714271173404962464094209856610307462183565045496396247543727316553134320125056038664857829656965182008038467631983811221653763566608509547179928552659201921205811831720220645188349218340253930233138272412234163079017696018268819753127841648420377568739328.00000000
0.78500000, 0.00500000, 930461723766266939899225269757209506815910770930935177923739399640844493789859260845238871333800976363577356629474705019054559244036411081363901374435074370344244138919494102687290662647393297720196953780421455243141798044575406368270264849645255005659449653346935311015024022850654932255687835648.00000000
0.79500000, 0.00500000, -913054252128671502537406194438380959762827566774454594705651836182678510512286409523000557435874372045967692742322104717989782274925344888173082365716987924112240316840966003653068252657247439061610219661017925383104007649611879595044662272621160490595651051129872616983154682507660027985552998400.00000000
0.80500000, 0.00500000, 875578793267986715189499183585531794091202064169733880614846571017027507841760015885157961273129323098484678784959325079794020896759216781026895616395800576869167159233415686540228587700023789192443235447320712948072378000161662373118458597322259068298865144440650987262024399658759979346849431552.00000000
0.81500000, 0.00500000, -816165477302402196819495720400191474334787264210716434313268802006868384725925089059679272977334444534349415763052674686190641865430709811467936548271826764938551285933806597571007988741584609315816501137745609014257194279680291699278757874925743919620126918263992611637822875413638742605786251264.00000000
0.82500000, 0.00500000, 684864729419430486629676125378187583742452704402356329993726200407105009837835194227830098101931161774276410558644216794461810171361542842180481469581135676540698249684453066770629251739129432590859848541560461721580615802554242276986538501259853198568380814290026278458802723933341334022899367936.00000000
0.83500000, 0.00500000, -665175587219248835010110512593934952934383539201201247967051926988511963863983307501803956703111275638471735567595316821019574874419563539389059962082332743150992159460230818570282969536553548003766641385624940003853323663175864604154639516311514887138240963207628170004973905139123924087458496512.00000000
0.84500000, 0.00500000, 717887209157150632485809589886922032815646953149410120443444903837260679723088377951092525136813817971840432908002935564211731541649515430665501291812749270192689216676637538846202139060547006784611341318447344617064765042509669812084701293101813207978631543124943583016890122330445938414816591872.00000000
0.85500000, 0.00500000, -667654610667499056234173434302065765466673456402434423607970743952572863750754290265512838831092499963856727271811959312638674229811216569387601625081964721323021746220976572363669693694299268753756205684435727108765842994603917656993984256498845630395470571214058471938573340491246997002619191296.00000000
0.86500000, 0.00500000, 598901271246214019682392700392003712582135178864705726074724912333939287719982356087481098114217011759679013970805169030071544897763265261354909852971054372378708280923933816835017532738306010469169514383454928256570898581017403729354912229084195526561801894163610540772396432898463310575363424256.00000000
0.87500000, 0.00500000, -516403605361454691161783962608670869625056701716042085451828431458868412034041784464777608118419832788400850835514184201416538709389801387521621132464981027697215658046644675291299895880275859502244639233872110123423189892711188627481493664661304185510211389322033253793777699851858191022385266688.00000000
0.88500000, 0.00500000, 432039046399240612356315641074371801456591668241653976346646014835417463413799059097287524807602092733937741982995744698308870849733248012074527767651877889947854887261133239811543284613190089199284606194607679428622215839380152865026947856787398833807832159527560664734203881007425030708464189440.00000000
0.89500000, 0.00500000, -348421186842904620462880426353466688477858582413298051210961989923909974459973302457185259024037002526110054741235235007064804294634262204665799689990104062748840905536787888052801886488786465737625057746023547720301210666716489767822699384825796643577871174020336643246589066220591328999822589952.00000000