TITLE = "Linear advection equation"
VARIABLES = "x", "y", "sol"
ZONE STRANDID=1, SOLUTIONTIME=1.5, I=100, J=100, DATAPACKING=POINT
0.00500000, 0.00500000, -4147856732492597026413698306985320530027969852475477072821541142528.00000000
0.01500000, 0.00500000, 3231848577756953634779667472922798710010320000449454435867803254784.00000000
0.02500000, 0.00500000, -2393506997968997082343380913774607881714723625046546243880944140288.00000000
0.03500000, 0.00500000, 1726751762031241801892550353827758085716675029828017835215652126720.00000000
0.04500000, 0.00500000, -1182985064618566790188159491790803873120579833948605066525536157696.00000000
0.05500000, 0.00500000, 812580135199791361131182682712403494441846434815714495776224706560.00000000
0.06500000, 0.00500000, -562074718495772176724460770318051178075024731878350969573243617280.00000000
0.07500000, 0.00500000, 374437531275184943183725660826824564961488294102140765709820493824.00000000
0.08500000, 0.00500000, -245504002058996094684325302925067436415081396373685815815274758144.00000000
0.09500000, 0.00500000, 167129303480299255700894075325743045130435833766241646121899261952.00000000
0.10500000, 0.00500000, -121617597423691458992461451179565576304992274394526363440820256768.00000000
0.11500000, 0.00500000, 98410809835580811582174461495029358912552136235046210763952750592.00000000
0.12500000, 0.00500000, -95168430505911509437479345707510623448380255366283767523712172032.00000000
0.13500000, 0.00500000, 110712243838867343898598166428737661331193719395136366692813242368.00000000
0.14500000, 0.00500000, -140181098248970927212760939297599214831208861947001359952555016192.00000000
0.15500000, 0.00500000, 178708694638271895032201580407781678827406560490075766608854253568.00000000
0.16500000, 0.00500000, -221561875466039417937129011841962189001984308880161613004020908032.00000000
0.17500000, 0.00500000, 264971642504997949561498242499065474750267513020053611880728494080.00000000
0.18500000, 0.00500000, -305301945410330092196904165669796086348413912946200638833408606208.00000000
0.19500000, 0.00500000, 336974721880134614536733170842201674531067984188055720794731315200.00000000
0.20500000, 0.00500000, -350379534326132764016620794586645831806157718240597476709117198336.00000000
0.21500000, 0.00500000, 336254778388700280855852395585004884221213664576936150750084464640.00000000
0.22500000, 0.00500000, -288688797562952108782949734826447575516610112141864699110214336512.00000000
0.23500000, 0.00500000, 200431394452350885417675532620178491867911070828773379923251298304.00000000
0.24500000, 0.00500000, -62167520387614450839149590395147915266438391560072216196591648768.00000000
0.25500000, 0.00500000, -129828627661744420175761130514288162956132497171920038637227474944.00000000
0.26500000, 0.00500000, 369277173666692868886632431211126837574086972929478165378084372480.00000000
0.27500000, 0.00500000, -642584500085153775775030955547453801952416919714229278566967672832.00000000
0.28500000, 0.00500000, 927929040891066308078603693073964856568911068152356605726335959040.00000000
0.29500000, 0.00500000, -1201372742481724537492590989092844904702401248263115044203654021120.00000000
0.30500000, 0.00500000, 1442715916473562640642424395232343111052343231447416282838569320448.00000000
0.31500000, 0.00500000, -1637710074064711914551856699427368760147631656289982425143472816128.00000000
0.32500000, 0.00500000, 1782318692244722123908969855169031301737213780669257609935685943296.00000000
0.33500000, 0.00500000, -1882411379310828249667416369678411143475985567871988734073384206336.00000000
0.34500000, 0.00500000, 1946575526050629878158787685505454153730978324200345994235635302400.00000000
0.35500000, 0.00500000, -1979969581461262418830190015968320697139139546272999603097946816512.00000000
0.36500000, 0.00500000, 1989246749284820552205182408577337206442232448730243730061567983616.00000000
0.37500000, 0.00500000, -1994687974852132963589507078566862782273178502491125700165946572800.00000000
0.38500000, 0.00500000, 2026741703435562511258907925371288051751614189598956534477759709184.00000000
0.39500000, 0.00500000, -2108387507364058937849390976645915727243508653121200539614666817536.00000000
0.40500000, 0.00500000, 2240853752543578383440194022167211308184817339025909053975718526976.00000000
0.41500000, 0.00500000, -2402927166451936795162307895191928549678527332299405256924837445632.00000000
0.42500000, 0.00500000, 2562176203673821519955785879781037616058861284460099562140235464704.00000000
0.43500000, 0.00500000, -2689910203359863274587015763910192952514509139499101077691258896384.00000000
0.44500000, 0.00500000, 2760856398724673396491509406184176435602591698916760612942863400960.00000000
0.45500000, 0.00500000, -2746404672723867806019795292018977643722496230535692583405837352960.00000000
0.46500000, 0.00500000, 2628702302281822290571178480244127581435475307102552915673425641472.00000000
0.47500000, 0.00500000, -2414151317488626883061138834601817507349610141821554856671200673792.00000000
0.48500000, 0.00500000, 2128626085314232520928807695093448368874495053930791949004418580480.00000000
0.49500000, 0.00500000, -1807813171069820619036774733751896372442589341393053662667857723392.00000000
0.50500000, 0.00500000, 1488537849512681118555899268997367109637081376407457673507875323904.00000000
0.51500000, 0.00500000, -1197354925894372718258321417399954570359040041987846385187462053888.00000000
0.52500000, 0.00500000, 943757251358250195697626311379855567671394578216488992276528234496.00000000
0.53500000, 0.00500000, -725571184000642445578423809123291392177084591383632200590407237632.00000000
0.54500000, 0.00500000, 538559940253204375151656019773760117242141194169604118346891001856.00000000
0.55500000, 0.00500000, -381613485876967036912736900207206605923917955002919906488294047744.00000000
0.56500000, 0.00500000, 256225924422336014508335254135557991208990402281384565894761414656.00000000
0.57500000, 0.00500000, -162746488096357762585414100799374254492496027670332805144970788864.00000000
0.58500000, 0.00500000, 98044865072326995186155049538934158259695503826519843184180199424.00000000
0.59500000, 0.00500000, -56292391791520305229555561689287870450017737779274454563679109120.00000000
0.60500000, 0.00500000, 30979475685488860931975308658399840028345680411219887737974816768.00000000
0.61500000, 0.00500000, -16432122364757408883036633116050996813322049785997031465310748672.00000000
0.62500000, 0.00500000, 8421128643407710930150842488653186114532999235587030113587298304.00000000
0.63500000, 0.00500000, -4154933298737240080226549204734088652745036369302836417486913536.00000000
0.64500000, 0.00500000, 1951571981170683165309827065805350885952074694157731830465298432.00000000
0.65500000, 0.00500000, -847077609093805143976147404897391333472677005011977304933400576.00000000
0.66500000, 0.00500000, 303433314135442654479242763942984903121336784689756705600307200.00000000
0.67500000, 0.00500000, -22478818482624635220215063654095619651148787042559726706491392.00000000
0.68500000, 0.00500000, -171088860372808967487760867061921493492569445135146041183567872.00000000
0.69500000, 0.00500000, 400935093132415654612603656247989770002935579147677399531913216.00000000
0.70500000, 0.00500000, -796032059701632749385738435616295146687425344231383947190206464.00000000
0.71500000, 0.00500000, 1562284131710077961226759981089761227271104883364733028508106752.00000000
0.72500000, 0.00500000, -3077911806901388150184061809784700513792528048133449682406866944.00000000
0.73500000, 0.00500000, 6028846998996027176647781713931596460459755749911692519539736576.00000000
0.74500000, 0.00500000, -8728437274380431418780350903874405575092946897691171647689588736.00000000
0.75500000, 0.00500000, 20649761212584321319611407424684439484421958564755193376649773056.00000000
0.76500000, 0.00500000, -36356242912558411358788996362575682786573374063422049395419381760.00000000
0.77500000, 0.00500000, 63560333342975975613856576872719882908176816928015412951976509440.00000000
0.78500000, 0.00500000, -105850021671100807020922942922282287312197449377867601577108307968.00000000
0.79500000, 0.00500000, 171184469409628574164148700699826016429814661383582006766402011136.00000000
0.80500000, 0.00500000, -281396992382358143476574439200204593392340655877956164807722795008.00000000
0.81500000, 0.00500000, 467544650631941211478894750274629975121063618338078191775998017536.00000000
0.82500000, 0.00500000, -746863301098907133271949036311711360024071814691582668233729114112.00000000
0.83500000, 0.00500000, 1136396178547546454265767564970745705953291641378357374927893430272.00000000
0.84500000, 0.00500000, -1656640398999655666656759548063318469746459040072273338037283323904.00000000
0.85500000, 0.00500000, 1871458996848826482956669329200291464940422155670546756023363829760.00000000
0.86500000, 0.00500000, -2589202055948142492297219664628953566162735356064491736496575873024.00000000
0.87500000, 0.00500000, 3782741863880797673984797791555641691546784157628692726166461612032.00000000
0.88500000, 0.00500000, -4669134015687274684387371298864522509622903449181904973503657934848.00000000
0.89500000, 0.00500000, 5710443997958338025893376420432065121350167473261439593212192751616.00000000
0.90500000, 0.00500000, -6767816005184742517212346897000904609759027830485901124983869931520.00000000
0.91500000, 0.00500000, 7706471381455311452209040457728379627619036498604647819046759170048.00000000
0.92500000, 0.00500000, -8457179816396278609313365832399523662103932215998335005475479748608.00000000
0.93500000, 0.00500000, 8898753024957165688939009028893602193809003240762207997426745212928.00000000
0.94500000, 0.00500000, -8490009902512273911046336692339059056915409142953349377932633571328.00000000
0.95500000, 0.00500000, 7718793713793627882093401842139394298277710892121255535212996067328.00000000
0.96500000, 0.00500000, -7576719442131089592022920414638563686772409278798051081339298381824.00000000
0.97500000, 0.00500000, 7014795003651940032572078715428207702105603460597575298670405877760.00000000
0.98500000, 0.00500000, -5756823145652927290546923110845418762937652192163701359413798371328.00000000
0.99500000, 0.00500000, 4870189664734874367984604821078814088539846623715519752865352515584.00000000
0.00500000, 0.01500000, 5960948486933355425302935138047002288129968158315640567829052260352.00000000
0.01500000, 0.01500000, -4521428045277125804271687130098715099339022781713667729300431831040.00000000
0.02500000, 0.01500000, 3324368776987148140172894193927229432725905397345701671830722445312.00000000
0.03500000, 0.01500000, -2327691682889329963234985062265821523783582320164312573400884183040.00000000
0.04500000, 0.01500000, 1584410876037998389888791711434441302624325950868894539845059215360.00000000
0.05500000, 0.01500000, -1088050803317444449928560471711015748582638668166605078329273876480.00000000
0.06500000, 0.01500000, 727280985504728869162473110296129888463992603525847586502216777728.00000000
0.07500000, 0.01500000, -467454869717438837421966871515430815929941894816781670984888352768.00000000
0.08500000, 0.01500000, 300040217187160237650804236657787863264568170927235006895778430976.00000000
0.09500000, 0.01500000, -198102066444665868841989664856963793681052890469626077237808726016.00000000
0.10500000, 0.01500000, 138842893929388537415311075252140705709544584467731666073674579968.00000000
0.11500000, 0.01500000, -107335981141284913128230730259924234545672631830852555786497818624.00000000
0.12500000, 0.01500000, 96263981772838369300525649852830524602193631029638111362958753792.00000000
0.13500000, 0.01500000, -99989301557538599417440594485750001347912006339304530446364180480.00000000
0.14500000, 0.01500000, 112860615797148626525663400125775281010738982989528222208949747712.00000000
0.15500000, 0.01500000, -131294083368402734241960508111433675925296222620705651145301819392.00000000
0.16500000, 0.01500000, 152948355448816453260962101532974454960460143031722383651639394304.00000000
0.17500000, 0.01500000, -174611115341573263812572530191401258109739408320000683341795819520.00000000
0.18500000, 0.01500000, 192644253175964061424314787112635884125096958938582731511541268480.00000000
0.19500000, 0.01500000, -202213202632616863653942309974436978946269407272743304448694026240.00000000
0.20500000, 0.01500000, 194867993351533792303343296380638166565419935497690189407025364992.00000000
0.21500000, 0.01500000, -162946266736729652552176583135480533966167642523659976915401310208.00000000
0.22500000, 0.01500000, 100541441900771829182097040731619233228637906670846729435788345344.00000000
0.23500000, 0.01500000, -1787584356757807351174581579790805504824423660892915537713037312.00000000
0.24500000, 0.01500000, -137646379519393507744010886065420723092897445027794485705162358784.00000000
0.25500000, 0.01500000, 317497805956791866139092694708711031832610116697831160030982832128.00000000
0.26500000, 0.01500000, -532236175455509472027005088741469421632354209712981927625469460480.00000000
0.27500000, 0.01500000, 769022888550524126717170949396142738374967037330029086628592484352.00000000
0.28500000, 0.01500000, -1007943683066184483132614025166711382163019186712404465207191011328.00000000
0.29500000, 0.01500000, 1229309053594772305077845252484233070463964944585872179284523614208.00000000
0.30500000, 0.01500000, -1418397831752914342922914501322370348932985713597709305265428365312.00000000
0.31500000, 0.01500000, 1566155593447848154619439096815319672526041273886960787030777266176.00000000
0.32500000, 0.01500000, -1673201524290238067512022402756025999265177499359658414694421495808.00000000
0.33500000, 0.01500000, 1751129843081697772282060189816507989822761722689469850115559653376.00000000
0.34500000, 0.01500000, -1812058602251939747558573925494856019888532815631086445754161561600.00000000
0.35500000, 0.01500000, 1860623323447994279477956662867714663753393490120937291173001691136.00000000
0.36500000, 0.01500000, -1906266719592162120425108339054188699071245962866008971538098814976.00000000
0.37500000, 0.01500000, 1972776523501561270511122669516372996070611885466276942201267159040.00000000
0.38500000, 0.01500000, -2084705945059430311163539758612703632266070319535590170243597598720.00000000
0.39500000, 0.01500000, 2250396611581141847058734457965627476012374480095284755311131361280.00000000
0.40500000, 0.01500000, -2456607915189774952522896221598344159595286631787017009607372439552.00000000
0.41500000, 0.01500000, 2672677338451066942535444735373642900854200913408314556797086072832.00000000
0.42500000, 0.01500000, -2863378677655040930508454151499482602071812401267828347532581273600.00000000
0.43500000, 0.01500000, 2998329208170049918576902781551330852031925348253961086451492847616.00000000
0.44500000, 0.01500000, -3045823710413728230865574431600134249774716956338550741017720520704.00000000
0.45500000, 0.01500000, 2979190441223870249430094934227317008907755092010914631357455925248.00000000
0.46500000, 0.01500000, -2794977282258034327127171607074661185896710901817920814374409207808.00000000
0.47500000, 0.01500000, 2513089620922725023030535865411736252685200067159474002195222888448.00000000
0.48500000, 0.01500000, -2168519093782175080043114521973632108041865857503402279533319028736.00000000
0.49500000, 0.01500000, 1804380921299827000139157767448566212686414223358215203347576651776.00000000
0.50500000, 0.01500000, -1459277832087395353769146894261342982654760025068400922246208552960.00000000
0.51500000, 0.01500000, 1154626333225692163212293738143488390766777851885379815098801979392.00000000
0.52500000, 0.01500000, -893887160176204958831121938327645256561634225122438850955463098368.00000000
0.53500000, 0.01500000, 672010101058930321823915697172432292077870195933114866333797842944.00000000
0.54500000, 0.01500000, -485020858015872144841207990759735857884417112874328947879405682688.00000000
0.55500000, 0.01500000, 332899145604997305644354583960660793058244960493084213595019935744.00000000
0.56500000, 0.01500000, -216383181951525547015335230748745593812765897555484032990839832576.00000000
0.57500000, 0.01500000, 133292969193998456594096788259617673835692432503265922377228222464.00000000
0.58500000, 0.01500000, -78101976379106744425279147357825725587542709710988071211286659072.00000000
0.59500000, 0.01500000, 43762545991596435286497711379259770692035806655536755571330908160.00000000
0.60500000, 0.01500000, -23586496018696307262813681437428261001693837811456715203700326400.00000000
0.61500000, 0.01500000, 12270630273869699701643005862558454563913842597559588976165126144.00000000
0.62500000, 0.01500000, -6144724587725093995237629205123938930352379355968105151719276544.00000000
0.63500000, 0.01500000, 2923407317477841869681696725820553682723351606374933127931887616.00000000
0.64500000, 0.01500000, -1273081727334332162859446381986958721740872410286329223052263424.00000000
0.65500000, 0.01500000, 441664586243713135737495641131606933165214541721733293857046528.00000000
0.66500000, 0.01500000, -15091466897840203388891405634367931982719495959699335577337856.00000000
0.67500000, 0.01500000, -238688938103488701364429248324968467863708602936695626854825984.00000000
0.68500000, 0.01500000, 468071073579810489891238793058665038760529800575502936862359552.00000000
0.69500000, 0.01500000, -806161964804706866432429299817818863792520809504084579602923520.00000000
0.70500000, 0.01500000, 1448439764727736282034260970148641877581565871713265449544187904.00000000
0.71500000, 0.01500000, -2763676447171152682751364740076170800459578161178643254430662656.00000000
0.72500000, 0.01500000, 5459066019368045496986720047399619410485631260286736302740602880.00000000
0.73500000, 0.01500000, -10836791101864432369833853619133281297424587064635257835036344320.00000000
0.74500000, 0.01500000, 21183995451645743996858344851512076907507229327387767386622918656.00000000
0.75500000, 0.01500000, -36799218478202029201416459453478230395913493430514345803325112320.00000000
0.76500000, 0.01500000, 67232941274315027261522688546430643626298442359977389517277495296.00000000
0.77500000, 0.01500000, -117717732777997717039721574146830030539235740671466816104017428480.00000000
0.78500000, 0.01500000, 193900454100064483359368031133850043299981723886511260044579831808.00000000
0.79500000, 0.01500000, -313491280497231074573389448420454892465349987916217477364845641728.00000000
0.80500000, 0.01500000, 517007751735103026060650176991075924896459159009227253871508717568.00000000
0.81500000, 0.01500000, -846142655296364576426887365982650060071704595862609722782248861696.00000000
0.82500000, 0.01500000, 1328996830086525752778084234347403389283387563769734619166891048960.00000000
0.83500000, 0.01500000, -2032659286357590251074027472014766224292021526538365593285426151424.00000000
0.84500000, 0.01500000, 2943105085677376563747908557548765112721486841600131254339145564160.00000000
0.85500000, 0.01500000, -3535581545789256838438054184780480937119598378239823700037143101440.00000000
0.86500000, 0.01500000, 4980562594165716073633546779405023668756480336862985735256181571584.00000000
0.87500000, 0.01500000, -6078550330035150054313848729785864851042771639216772868538900676608.00000000
0.88500000, 0.01500000, 7585219352716574816141819531700804357328850944569666193747154567168.00000000
0.89500000, 0.01500000, -9392426758483730184455304350579402811764103926573224201184752959488.00000000
0.90500000, 0.01500000, 11089994298101829850182224459179969288266630546905307685938727485440.00000000
0.91500000, 0.01500000, -12576323926269857734519722075156865660650897670866464670286558003200.00000000
0.92500000, 0.01500000, 13674745817587515203887857531553716609978303399775443980047152578560.00000000
0.93500000, 0.01500000, -14036462578825214757874346725483728270592316681563067307905324679168.00000000
0.94500000, 0.01500000, 12743063819184464238672245847079318642034465451535098393015900700672.00000000
0.95500000, 0.01500000, -11883511038283138668576362878147650973349498920977597835333012029440.00000000
0.96500000, 0.01500000, 11664503253295769377938998167496285714082669737555454977248581386240.00000000
0.97500000, 0.01500000, -9973849243107181897999331479180851897012737847493880201507076308992.00000000
0.98500000, 0.01500000, 8259684517051610221624574614525231473767352531388776319439616344064.00000000
0.99500000, 0.01500000, -7186271678823236572601055463144622809050194326762128063678449188864.00000000
0.00500000, 0.02500000, -7918384964067826000983176010891079673996548791091922071913458827264.00000000
0.01500000, 0.02500000, 5948580405761037897672603779103850690075714034302622754218176413696.00000000
0.02500000, 0.02500000, -4294244032969799798312664089172288902587452719718880913660269559808.00000000
0.03500000, 0.02500000, 2973248973617256937570337096069628313838304156584405118115565797376.00000000
0.04500000, 0.02500000, -2023118235018925892322084878078152143160792240800328721194721214464.00000000
0.05500000, 0.02500000, 1346998541556236201244539232863921536167352743179308681567754256384.00000000
0.06500000, 0.02500000, -864449444840309016530347586178823459275290693748309259132608708608.00000000
0.07500000, 0.02500000, 544732403519895712811845593909783335695680700358197159726074036224.00000000
0.08500000, 0.02500000, -343645498670191214177926966017792014018030658024117999181638926336.00000000
0.09500000, 0.02500000, 222419854330948330208787521873468920141941553120779193280582647808.00000000
0.10500000, 0.02500000, -152298312410112531447347788220111059058420205819269483774854823936.00000000
0.11500000, 0.02500000, 114224737487926116968997055254412269249479304765540893412026220544.00000000
0.12500000, 0.02500000, -96620641428505748934026379771394586841741995769901166405439455232.00000000
0.13500000, 0.02500000, 91590272693427644395544830813378744045494740840702665908557971456.00000000
0.14500000, 0.02500000, -93432696442586611816205521636873059244290363198810601640054226944.00000000
0.15500000, 0.02500000, 99166862395422939060626969364069830125919986984319375285938028544.00000000
0.16500000, 0.02500000, -106613567347225803228700560274183418853585754876635138101874786304.00000000
0.17500000, 0.02500000, 112849779548902844372586692951062478315964594965350779016628404224.00000000
0.18500000, 0.02500000, -115058912442218424540318875134909271157864363205615660381407019008.00000000
0.19500000, 0.02500000, 108456144753716860342906697438038547831882660192972627796792705024.00000000
0.20500000, 0.02500000, -86307686905476705631471188042079007455613894646239931336623128576.00000000
0.21500000, 0.02500000, 42770706907880478764904245059070451066412303332334227426100903936.00000000
0.22500000, 0.02500000, 26816284669147308587009666745461065568414663882296501024403226624.00000000
0.23500000, 0.02500000, -125964579156505180822237529771510852701480376261953160759771922432.00000000
0.24500000, 0.02500000, 256727555931408646928304835473311970629818963591972153190755860480.00000000
0.25500000, 0.02500000, -419062506561106116383258449614052167955105155910407247222462742528.00000000
0.26500000, 0.02500000, 608050056615818955550529844718702484667768208745063210547738050560.00000000
0.27500000, 0.02500000, -810643995152630888738783625819745267464613332712411971854104788992.00000000
0.28500000, 0.02500000, 1009307723877949668918832089539236597429485703481373491052226281472.00000000
0.29500000, 0.02500000, -1189449321371857476846399617503512938671550153275288947629850886144.00000000
0.30500000, 0.02500000, 1340509698084241707242336298367839120742150479378636191955607879680.00000000
0.31500000, 0.02500000, -1456284739355561862192692314463600683454403864720564197320233582592.00000000
0.32500000, 0.02500000, 1542018223292856045507662025481709083551965075487686512212682211328.00000000
0.33500000, 0.02500000, -1613121604710668194713795398505146115682471867833510762009092685824.00000000
0.34500000, 0.02500000, 1680383847910979573423702634225358056959414100198475140773456117760.00000000
0.35500000, 0.02500000, -1750224708795960906742675491520051452770796365233228250594414690304.00000000
0.36500000, 0.02500000, 1839410518075820583087652630863449393197939271450501441257614606336.00000000
0.37500000, 0.02500000, -1971196182559832696339041884217954147546862982073167192148771078144.00000000
0.38500000, 0.02500000, 2157143912472214107904582210184619250545027919323710146897460068352.00000000
0.39500000, 0.02500000, -2390488226733143073168229849385636064904373194253870780473090768896.00000000
0.40500000, 0.02500000, 2648545128760550595013487245231463978317678289747096106885699338240.00000000
0.41500000, 0.02500000, -2896828535894820319359436919617392226977665424913576980452646846464.00000000
0.42500000, 0.02500000, 3097899546946594917287269741069850053332186101932745445496072437760.00000000
0.43500000, 0.02500000, -3215687261570914573746215479198486376162207826900503915375427059712.00000000
0.44500000, 0.02500000, 3217888293742473391737630453643733164580428546889305786764054495232.00000000
0.45500000, 0.02500000, -3089590694079368172161164203266419596864143157980645785796847075328.00000000
0.46500000, 0.02500000, 2840418660476114175530163888703387425512223793692355217775944269824.00000000
0.47500000, 0.02500000, -2500363315355114587903527529076450618985949865947765561657911148544.00000000
0.48500000, 0.02500000, 2113843819130535737751147184550092649358107347666116836402434932736.00000000
0.49500000, 0.02500000, -1727543645660578928158754740582191694389164909875853860613360975872.00000000
0.50500000, 0.02500000, 1374985418069058660590930756166222935705472214855405896933744574464.00000000
0.51500000, 0.02500000, -1069819105745449750529034540820771949415861282144724709325745946624.00000000
0.52500000, 0.02500000, 811015394395221628649762636345079863364419607295977566936787582976.00000000
0.53500000, 0.02500000, -593510514374334849189196321681178455064140054098546015220199849984.00000000
0.54500000, 0.02500000, 415045367149365066705788740969445542892331666782816703031327850496.00000000
0.55500000, 0.02500000, -275602689818623758293374852067932078069222432898558710732640223232.00000000
0.56500000, 0.02500000, 173550706945702000433474038917833689080752526941558835239874199552.00000000
0.57500000, 0.02500000, -103887279086158778517720458293255097769287487092914736090318897152.00000000
0.58500000, 0.02500000, 59391856601452730160128079250226154214026062265235948808783790080.00000000
0.59500000, 0.02500000, -32613283072278996705769516696922562349891724284193737507422076928.00000000
0.60500000, 0.02500000, 17264098674708297281301386695685715812260887198522603906954952704.00000000
0.61500000, 0.02500000, -8775869578143016890382403833335519408711009465630169827171631104.00000000
0.62500000, 0.02500000, 4200489471121133458649439742845616946591347968214772306222776320.00000000
0.63500000, 0.02500000, -1779740860513401703610772586598695594827521448118465780057636864.00000000
0.64500000, 0.02500000, 506083782259783962914823000217321042828863383466163140418338816.00000000
0.65500000, 0.02500000, 181325653366104033915711606863414696060274080692784553168732160.00000000
0.66500000, 0.02500000, -588535453231044641997639724368293410393832632702197415618281472.00000000
0.67500000, 0.02500000, 894165745740953828340235051287284867762502453244391448672993280.00000000
0.68500000, 0.02500000, -1236561394002872951113591526239165517201471952008194212323393536.00000000
0.69500000, 0.02500000, 1798020999271993508413004117254374221279985221153215359045599232.00000000
0.70500000, 0.02500000, -2924177450166506984607452600202946597428735360721798510235615232.00000000
0.71500000, 0.02500000, 5310857772360418280091232236811918156382502771144235898971881472.00000000
0.72500000, 0.02500000, -10305191782065633114147302735927028096844686930429623261651271680.00000000
0.73500000, 0.02500000, 20379161818094985228190244603350477256423028470208886473408643072.00000000
0.74500000, 0.02500000, -39834028004037130217417294694645425277128607552055698262971121664.00000000
0.75500000, 0.02500000, 72141877019465193322011232106237279998207772780535307300195270656.00000000
0.76500000, 0.02500000, -134818167420780153312918498906767960288694016587008910389848047616.00000000
0.77500000, 0.02500000, 178897740265425887317685810231809139396889696532872449339009531904.00000000
0.78500000, 0.02500000, -334740285763191965769704695225273197908943271569570498522061471744.00000000
0.79500000, 0.02500000, 627215572514460393718167140479852742090517650674692100912050077696.00000000
0.80500000, 0.02500000, -995790128667898524321317887117883770362614570023993282687932563456.00000000
0.81500000, 0.02500000, 1540438975826937730438520059708241941539249788767694523110705332224.00000000
0.82500000, 0.02500000, -2281448403928845794384753166422856395501190165170267730368742293504.00000000
0.83500000, 0.02500000, 3303038292193034549017346570174579214617471511428316459645242703872.00000000
0.84500000, 0.02500000, -4744311356200012514017088688661676078218026764326649266688678166528.00000000
0.85500000, 0.02500000, 6464839347841610778799521902517361847618528371962721258236607987712.00000000
0.86500000, 0.02500000, -7977414265305706291400191153799017644887752582105953607553344602112.00000000
0.87500000, 0.02500000, 9502908693203466156516106280397177184828796283943603988702280286208.00000000
0.88500000, 0.02500000, -11716452466888995288455558301592899791146036346681720987261322919936.00000000
0.89500000, 0.02500000, 14487388431535274896182564521640833020229768485709060715981725237248.00000000
0.90500000, 0.02500000, -17302744158369386103692884214077877942551676039017156766508100091904.00000000
0.91500000, 0.02500000, 19681808684677477252048025515647129454597044817527859046676940455936.00000000
0.92500000, 0.02500000, -21066413749917657500222853419819127971149870088577083577058220572672.00000000
0.93500000, 0.02500000, 21127507787478846115187659660063374924542897414160460087453940711424.00000000
0.94500000, 0.02500000, -19712078953776318059842732015343217345821069643233337650141611425792.00000000
0.95500000, 0.02500000, 18622620342731665102189992421434324749634502770334031994682284703744.00000000