TITLE = "Linear advection equation"
VARIABLES = "x", "y", "sol"
ZONE STRANDID=1, SOLUTIONTIME=4.45, I=100, J=100, DATAPACKING=POINT
0.00500000, 0.00500000, 4983037612789049124933981042919167303223995948203490442325139323131022022144923950402169422358464976412130018714008381534991859097139444758175014466554078191453032591494562982367779907647752806169216207028224.00000000
0.01500000, 0.00500000, -4908736328513522639188273695966508537390005571673715268441255577397114392939459969702299644115182016538500577278760905536449772370913175119079597587263194462630181519788520772076243795406626131346471105069056.00000000
0.02500000, 0.00500000, 4322982297129239869807232231123851870068469015923857648678267742711940636229518145497837812736682521004604087155150719419727100635079736038198364959852838403215644437183864447003193143805065939817256970092544.00000000
0.03500000, 0.00500000, -3767502002177462895248993623208978045282404990982184897004620525459327996498964469042185759789873050927188986397505122033048016320495841214856752237530791527256989636355114532727891542886723816619465081094144.00000000
0.04500000, 0.00500000, 2951550427227308083002401047957246584779005945507969823866151370468101012489395098562091632221943912893976570034174922188063344412780002524129013837234018214168162338549151223503616690814596120418103177773056.00000000
0.05500000, 0.00500000, -2707400961330349313194512494515783334698474278226444924452167659491475319055916978148093318593307054637026145966048716989968076628241455750684231581582520341980100269340815687699323139709076399170441629925376.00000000
0.06500000, 0.00500000, 2357938527999856169887525440754962312042989332753089477953586757807969131521728206623830304031208573430090215098283533883956451319911009145052888936682952566992229470685457226571392067769092544144151192535040.00000000
0.07500000, 0.00500000, -2115800897214950168073180817031879734712851919221964313530539689733943134046481481510699803366547646184930561022505212105866612742140727644780284035682694314420991639354607142205653465397921243929687172841472.00000000
0.08500000, 0.00500000, 1603273760332248223226954744119140354120640797027611672330379792317342340273331081053817149413273486484274640727057546681628017899941608893941909721869389929080959038534898041079922498753001249395238944899072.00000000
0.09500000, 0.00500000, -1462814498357066804180097391207636768940726802823521982930436716458266751429325895235918831898002855606354064190927609376034791508075448546068983518821996140814514299218581478138340166151356863787569921392640.00000000
0.10500000, 0.00500000, 1176238317804311123347092496180336569506255811360666508458528033422088046027426121984264214881737196195764212766996517234218565085938857640000466889598259272591030651072417859426813953941207537343369995878400.00000000
0.11500000, 0.00500000, -852448634396131944429460662237545518476895591629598610535588228864809629610801612419646231871873493896928709523552925930451740671528982097574093651641400372854701447098597303364214520516029157698551892934656.00000000
0.12500000, 0.00500000, 791826801130107666090102020979841521469383765599731937445129250258604812625723172071369636831880229536889497634255729473362841876225970445538882262280574715179117757257741225952295693450947770629481845227520.00000000
0.13500000, 0.00500000, -696113829105586604476896197275649037805452415048675606909809447681099114484785683392512081413792945343898316812184479193507001531324687446531032620148046980081972657467625338035891979943521116966031311503360.00000000
0.14500000, 0.00500000, 629161229116042865360040325222933843650043027772529201606190724936558786809679123224116727913327756928496858761320377094036322933382160751364127471150410138584277477939951655298034219949431985972152371249152.00000000
0.15500000, 0.00500000, -513973648301498537522428371438634407822201535435090761540247774362394833171813632660385548402599446172892662281001538786644931249728993973981695470042807859513293858708841953525198885731416872968548436148224.00000000
0.16500000, 0.00500000, 527228848233547002850897550157026849804237089745213288284514392187551951724844861716030052113433138009925833545440344471216931921613729608296140034479369565516083426726472502902714647927425316431008987348992.00000000
0.17500000, 0.00500000, -481182478185326666387674631726112898630643762898931243330103406792723492078676615669249241039844846446637241694892175847646951389507191307439803722858318341345205151366862315135702580808375254341453969620992.00000000
0.18500000, 0.00500000, 396840784773766088338760943049123364010163077469803239905909081342774536584071471969396122187586418897598563275925186894405638345184815361851747012612582917276586203268200433259033407248574285166524250456064.00000000
0.19500000, 0.00500000, -409772525361003528564577740988227145618646942524997363980754411744120524534033659793759224045897983411977239441332386222630485166018813869337989317713382149839704933050751340255287875320832807109423456583680.00000000
0.20500000, 0.00500000, 358171901165795958002461349077737489162117884803035364578994585215005981653707018150152756863159284758778382058837554961092445307331761121782856010620954752162847555215585705968277412764174385204749177716736.00000000
0.21500000, 0.00500000, -302854812857305500510603776214701659423724558544921721067304643059846002655166920327433961907511893676148121132476295266110126699488821670460663447432132851571359409858143327399844247963055083049616305815552.00000000
0.22500000, 0.00500000, 245802993254317346730303145394544373869172908637238609705732973535015351543652733754680008933487806109320042373980070769340634042061701704132315055922881564526424793549536535310237227697065495928119735877632.00000000
0.23500000, 0.00500000, -176978370816133331877518681921027068740831700741151458271646606802370810903364901555022302708558926318004793641332417651307580171415964282956464387022891819903291165098609013534904778358926931473270644408320.00000000
0.24500000, 0.00500000, 99723217562340891453856640191158396539666732206482683943750968364684835429854340215947325239052516430197587982364416670738734890011361472295984789574583018682864048224524377752535852125554044130958105378816.00000000
0.25500000, 0.00500000, -21777305839934108031341588156972471892866077107794044371986405141306249889795630735284979568311349371031583605276332207710876629243961980680747603323445969254930883535999776336222207622518761334896616013824.00000000
0.26500000, 0.00500000, -59329569429768758491399010545044303299870852406284340775923505897894766389893970328904553648819045406622913877597687935833686013359506612180878440057861630265867317081388952303948041057540086531774190977024.00000000
0.27500000, 0.00500000, 127750593678027602109152874738359774431453085985258854858915239472974112628482273168484374489856017253473838483822541926599938775900296733031837163837104360808114274133145056046430185973719637518278755090432.00000000
0.28500000, 0.00500000, -237867167608411630768952433583474860095873403019698704207333845831662099903525515467485202293035131973548141389908774556903765269555255811644422695749574547335511099585510361996899158881339077155750752026624.00000000
0.29500000, 0.00500000, 290590020129080859046066348059967000002166899155511185824548825215078460052776484841829549922029340010719499706381841370137072656008478462197835886253379534560800567323875783779998055214047337495675642314752.00000000
0.30500000, 0.00500000, -410931692320949295601250585885800861144032996778366724329590632276812057008607636963201208346789215691872735232477714242249802001514525764107450376858309415801100595194312623906036786994278982140515437248512.00000000
0.31500000, 0.00500000, 443193247835343213065341497740402839317288676078596388090419318549581313720946423965482536394407188534905653180615958291555928579263568644790017301917644244025224719492987849892785156536396939751679577817088.00000000
0.32500000, 0.00500000, -572982463701947255030125570423801374595566625599472442350245227239008513059034606505295768543093408042419470193561075075030472958879141758256785991048402416856852325707649879746602779308470740946333986717696.00000000
0.33500000, 0.00500000, 560714232984134217236762728831779741373966529734896263817492902085661092846344689146807632389548813156971270692687634736659410311445253010114513599768537932183218537297967624036863449387928943846375808827392.00000000
0.34500000, 0.00500000, -669779462454964732222909005812881607358158330690336513572377197101484013864465607495064807343305756615283558081934206989451122451440475987451606229168297861083181721023559541140100664693174571653066221682688.00000000
0.35500000, 0.00500000, 677117788410435511061747674995608607902256203971767575024688482771542832043308928623799725013241772368087408627307530541254517235609723867489181520410661178159831866262093089727285101324564871074553264078848.00000000
0.36500000, 0.00500000, -688206228613459277065484449305070341381485989459091468634180531142494163803149999051902916537677508144880525569256465497760836953609477892929584047270122897423760125874294102804898026714651186981234808979456.00000000
0.37500000, 0.00500000, 704924843418957615742011115548713527874462239031948733683452494060665902110880165561281400152542886667576221990805679664539974415274573736524784323893817368959707788971461758865957437404849094568089602752512.00000000
0.38500000, 0.00500000, -697486288392430052542713212674267808505922505422453283687297149977141027897075174559403276845683225466666886922870898100394599183903556699449673467853839830773168370796421230525574811898921767193607231504384.00000000
0.39500000, 0.00500000, 672373490363698721878121172223649976210453167297295429443160499597690213061861532340722491920331514301197698859934720168066607068000702560683586584037913913947274698021899463505328834880024670766882636169216.00000000
0.40500000, 0.00500000, -644482208846557684967315519231130753738586533974165560609110738151002685420545101903807396807053153951818228990071265444946171677202304301188602490125689024991219328982067790647170638196476272663186682937344.00000000
0.41500000, 0.00500000, 614345726758165539212760241526401805935142837703246076809880983632250946955159956733057661754863403062554058656833190606925894406478116847489441344250665025881524726950933114897044695077139229731727303770112.00000000
0.42500000, 0.00500000, -582111674824255790555050240010359234486182501715750958346452921237744919008692776241234096077842468515096610884130124102095199243668443699836628233472581092320886851118063610282888582137823099708376390565888.00000000
0.43500000, 0.00500000, 546448651774591336847305580221848231768438805601851375089245464613995639765760538979438012923254188921031238332870273332592988140642117254704783041746248490086538236699252341914907929083457402678650062503936.00000000
0.44500000, 0.00500000, -504697729318140605151440897079543040991515012829095834351890109899037758461440780956007676841082835713802622495991185615796635214063151930247007293648604272497030460827136559675856540558615348400847220375552.00000000
0.45500000, 0.00500000, 454271951138970383475650450406924562766814210505525813711791738173435960818984704604633775338663536168023093598260584849425887860813729351298236475430279738932222585134900542326853129559737607436543127977984.00000000
0.46500000, 0.00500000, -394993591096959491138639742717395468932858323020894346447975880501312178734535794169128956745047953554701147350497779512041012617586148946735362277759358659498531296675242673779190852252194536503714789720064.00000000
0.47500000, 0.00500000, 334187042427323420225838384861869320687382689471533590939876608429184150403856606131327571601165542123045074919058147301478790144559122077921850034389022673668727442731192063714899382059447074174080697499648.00000000
0.48500000, 0.00500000, -278602100189153289628534546908193469462350245900921558998282868399785548341993694182018917160013802818341920152721823861515739402135865653946883175457680599540451068658079002889815579640117532707207298154496.00000000
0.49500000, 0.00500000, 223536782564852806584099676822733622152804795140465844397371360692235358511943279732627560190016390160548049089648333089536870142433311229800359480987815609760780617521930140589375354320100269121545265217536.00000000
0.50500000, 0.00500000, -164407707271596863692430413087862385292177904127169195029575480894412703458889096837959439870652315971354229500860040811441907735054462595730752271464021447629845733989364661483904852386851668372747718754304.00000000
0.51500000, 0.00500000, 104744814711468767171542461634093156997060768974666754289734823038197474797123018317101303120092136168285643290763905062071302845958164035245888419070820218189723564700953654594376933240033343641577569910784.00000000
0.52500000, 0.00500000, -47513389226543314894421584165813570922536400550531604354643537328220981356224352125453069791725744970439977722438356925642674607834738254849905197833869891522408108850789462632760537767972449461768942518272.00000000
0.53500000, 0.00500000, -7951802349623328106866997728413354061910526778183164255764922386439683235264652381597060700608791159936163124736627641363015497258466349516782440250938164772355971516162475621700500440478549314784035078144.00000000
0.54500000, 0.00500000, 62647252306734386743173580647477370728667313441541984275674173748636259918142168846977134719998890900583067231327267214951332427587735901743533311142784928897417423848766005601030670623969325957239244062720.00000000
0.55500000, 0.00500000, -116598228453437986134446481027699232283238892409962588399023789319173126538847140248710821346586926899358805150443385114623738464681120235302781681276955365484786591309928975726160471150510515087097150308352.00000000
0.56500000, 0.00500000, 169538847001026793949962578282654978959874840904030716342862023489041793306170276117781464969851150196624406175206936754520217831435616580312115729153832869574190065035552462057508483030169353868810941104128.00000000
0.57500000, 0.00500000, -221579836479050580884109231749891638267397761566170095889025987681903322705888549722012575259876982746405022128055328120172903399461357700666560370017236111469474854915301612097854026773383069388481482457088.00000000
0.58500000, 0.00500000, 273087482244344537664775650972334895889650427167664211056469758299078597137666483912189455590445508507594067759640106139010799657195367014483555731869860789705698927863546641629870694582657849904548773101568.00000000
0.59500000, 0.00500000, -322496882226224587282081826563159108227916866342411771345904116644317489612769041335750802594881396886797025464715030303319868782335583971295012190618712662988198397189975375891581761791498666540581523554304.00000000
0.60500000, 0.00500000, 369996914327658820119637557526417912439375879237904417367232622014304216357179239363438203671177624988767266881823977050492235937547432066215337246859581061035274422385436910964334595227969247177215183945728.00000000
0.61500000, 0.00500000, -421188042664564168319974926273447023373794961972962400042550549091076930786606806609745131660334138115697883121985479538830415947091582819662848610652768745730703137456832102090281753312184138491807328632832.00000000
0.62500000, 0.00500000, 475302570034342284329513653413164961726362263802766621737978667565029276790242651286838322857155615868604909029174133235288375964751957446672782255207209454393685868976138112460045678546037454480983040458752.00000000
0.63500000, 0.00500000, -512424151906181535651115750917634355066855270288495492389446734163335993845480640954360416228916354749932005617885959525310256586626042132329676165022310724211069728820286467671114069888555592461809365286912.00000000
0.64500000, 0.00500000, 544408634225661214252304207853839049238973679948586267952408931673974654307838493447087094049337277898288782710465188564955118103633049474074336303258530746547525136085805532896719664994908157206655074828288.00000000
0.65500000, 0.00500000, -599852360667503452654341317565915485144964768581819065987183490317913102115255641058728329433724909769043626177840293121771223044352601604227276093930871207021782373698096563230628781226332813028940725616640.00000000
0.66500000, 0.00500000, 608165716622341874045449821676021190416586597690555392652157090676458493322338166317616552876058533326850628513104084343081742701871733238066241868857302297064100438891010129961096712976509626374355637239808.00000000
0.67500000, 0.00500000, -709732195773656494310878038704240712612487170000910087122711820645823776418816435890280254180759107682640780748190691245686450840368826619594561863733199713139159684316844811083121437531241563748904982282240.00000000
0.68500000, 0.00500000, 774885034599391403431090274216607047413310498485699288250276612467750504547734252747440507499376411243677106229791747260587926460926161144102995753042702337074378095230402808730122883651871125089517888864256.00000000
0.69500000, 0.00500000, -855753624019616289755524705238197041472716831639877392117075945671369139209775241537243731819595564690239307924575664502806088921133992596323061493488800624866264984722733069627607013947679476565518709686272.00000000
0.70500000, 0.00500000, 956582078685592627594039503009184381147924860596419480000696203559521852376524453862113356089519923498709181372470559782011010410910108997146629180436229207072665251429030743290473529601163853657254068748288.00000000
0.71500000, 0.00500000, -1085049330199881318393216401841631947407087291477246650057782555564678893230570675001434368727761575741610932579448185805319736119565121273969371224957996453927702177522532040820344500052937535308385289764864.00000000
0.72500000, 0.00500000, 1251990750448560442723970090629840922643601431682239910405330303987967631070725823872405527885028179018810467873469962975705601150340103308998852278548049649922039981991373892066658238849744203042576234708992.00000000
0.73500000, 0.00500000, -1375855125051365101504659579311736037860924917546341486962925559863787685897880203099934190739017895096991862003920401961956420437824349593359825139396515065331455449620236073269528152812084518856211092733952.00000000
0.74500000, 0.00500000, 1551277106055807745261319407916274520736478822286921828496783971418776574153432297051843943506553736903666196392725534305857616687507192970243288164052702443864974059837998293057764966404846270672401015504896.00000000
0.75500000, 0.00500000, -1775704439557852910228352953003123972423913023119797939199621651152997457041295548796931988789363029834161306556268541265404500662259861331788682661641005514954717063508313125831885122131860154029021610377216.00000000
0.76500000, 0.00500000, 2024585775330550807522429445466171365579134696261181025492717849352237650743814323845787999713947931349329716906656347163610218840671755150845374403214259612278771085746514056594861543168660942658876970369024.00000000
0.77500000, 0.00500000, -1542021149787040549291336180927656145213480059350772815700674683837463223809324605647589304842833538367533465824076304205604678149685689395903855225969865756720138828731498406125864308767683209951231854247936.00000000
0.78500000, 0.00500000, 3215420713508274068376901123695443141426105171039451523667733721719421027941685973437651115978927173500896682948710797235201037690154815056090051206136135950259819357171496374968127663433965064350684999057408.00000000
0.79500000, 0.00500000, -2274736382625616677096261270166651152005045371155036987365780713404738713059166546499169332422358513741228838909369638920317233058592252119135991104377624558338088739482975617265173401510443522826590572511232.00000000
0.80500000, 0.00500000, 3756258829833347999708484628516083696693801776365725995986353654238145521395414732789655551034272068355186133242887684690175157428121771893035467691583416526759482182319057723793762850096605947525038283423744.00000000
0.81500000, 0.00500000, -3071228753044432717536763071025434551121582590574403006016709663957340644099903134685053443433697847198757229218454146933881962421664736791403065469829011239432569994970735232454304114595061383161909400829952.00000000
0.82500000, 0.00500000, 3236320393755428803529034368774504599348003402764813537485058883541469754926362015802202937980795181017414232084598224278435292337799086339133052073692531749355133170734181267720354482198190191047204675780608.00000000
0.83500000, 0.00500000, -5287634177245670102217866725256541375458592913338929725362147495605769267932198615703357842382907825236541371186834223073573700076808548781440367306680455069793785007618824330035062070658191928417976009621504.00000000
0.84500000, 0.00500000, 5595150644384457695235850984386279824747905707762763620978624127963521177004856705624647990612269326570950864738454267295728894284529205357437150771193886889281028491606158063201953171728191746278727941619712.00000000
0.85500000, 0.00500000, -3900711412128559369941851657712172991949609233777555139541182942783546567444083989056031688560516980836047640293122878814898859759273382847018056037824356989384219011311124677817753569794380863370638785511424.00000000
0.86500000, 0.00500000, 6975250337363766164923930282136860847239114195691337636820043935567716573708476854311344023635426572860999302326734506528580808102645371002317042956276413067486658888563697001147179511056102860488362365550592.00000000
0.87500000, 0.00500000, -7799524646697048459547242783506979416363071004072712611622462421618434593783933017986736275076821859378343379205141858462424722972693421533955333531891119315605308023272119134869950197501989885074959734145024.00000000
0.88500000, 0.00500000, 7972426609357423806789383872985857157542731550423810771890517756190024178661646493185020179800999562414214828963214255034366919015784819235844644507957993438800525377111163607151868378412903126555876428611584.00000000
0.89500000, 0.00500000, -8013530506728105704686701192224934150782050061472606222936539343824820803500521435394233036296455180439792574333933627992510806031213612530792808347522156578448584154275269991771381955298667819708957067313152.00000000
0.90500000, 0.00500000, 8520867336548013927211131173304202633316933483559806155689962310656876252652452664133827168599851541374775842863780170338370439585811248833993039566801025298781701722221052921625031005055342237154586665156608.00000000
0.91500000, 0.00500000, -8896072838189550466370348442248568751798388452313740902207477523894667749422740792010838500850794262379157432636278248848102654041873093236266333719343065321560696661464237354962227221141306603091164837969920.00000000
0.92500000, 0.00500000, 8940485749142726985804807537892648710218877392091451740123778553722550296541494353767877370145627979053093783901824681165577792704192777322039998530639675154446845471519157588718565651733676683121143767367680.00000000
0.93500000, 0.00500000, -8794884280091731298557415489239185887461162338097016970569792849795993852715141489669738605031659010663419944954056102893316385349003345464176437615005124279057889854162844212922381281389386669642459299971072.00000000
0.94500000, 0.00500000, 8169972779867594402688329801654253377760636184009908335458588595365234998503761642637885311130805802262236224147579756525187013411280530865383625381629958907113252386451029279765298680129313546222336510787584.00000000
0.95500000, 0.00500000, -7476452886968076377696694507783592573226235284136750506288087793977191631519852612088930743018056862057767922511881862816408821370754362891756315166948994738801734444989681720412341300057274070469759951962112.00000000
0.96500000, 0.00500000, 4786252490213934857186479647884077403985267435494620343162971103183072417913070927140384524390361357823012473247567022094182107903270593152729621058793055828308628742627295588472518116197630097126344710160384.00000000
0.97500000, 0.00500000, -7156314934597571242097017460867089086171289476813191076337513277152640202654749158181583924852392010793208877080275265250056663218232690108397241024672755160948834230384141711033170158260268149080664104239104.00000000
0.98500000, 0.00500000, 6469403330614873358967791331797493768278087813477181555070360241303713393266458065166821350474231106727656714975372347515605548150039762851077977740999353034344022702097783923578729191058486285148434336841728.00000000
0.99500000, 0.00500000, -6037842646328243108621943388043644914953248903333103155639955872857312580987859380687614381362531488808269429030720095525997709885319687698386001242216176534070453463381462474179427620704943136436536200921088.00000000
0.00500000, 0.01500000, -5742206764213723594392848273729262065770989180648318119706685400487858157559161236283265755278996825826403274018294503167511425677012333154177618172884888584319377499350981521296867306024260111656681228730368.00000000
0.01500000, 0.01500000, 5171352470060410313369319733186827967130570965039377439621598883508095115894847980898180499610320238938801408311626936640365064566993798378627893920418767561825391201094787658422886809145102222651731631669248.00000000
0.02500000, 0.01500000, -4618536352534459307770018418677487964151086899303714081281678142392872998991729968659252163297553043054060220061128496252320262911918552405230317189517871410679466336683870623421515804155119762128038659096576.00000000
0.03500000, 0.01500000, 4006817928920967614533828528052811731345632821297977702369609877680004105052036708796689079635410955561071277492063701723356522268230295236453213406119116840024886329919024312495292240495931597566614450470912.00000000
0.04500000, 0.01500000, -3401407599341585839146642049143830058565769636124559756770117079902162771425040202985232957697420766340186229083079014351727894199696102812272690990582162266971956856415141056225453894694553197018743513808896.00000000
0.05500000, 0.01500000, 2883069518713908885797196788782185140188566885290858286212529029138223947852409840281662226214538957809876895240766871897695114762609642325347532215383410957434850257912907729939474511977252802402162283905024.00000000
0.06500000, 0.01500000, -2458575064304984742539149193592858722991955738387798962957154516315061316803813009281747198390982762114073522173432954294019524646358372475649434215612949216354023914149159791237163824478975476912578449375232.00000000
0.07500000, 0.01500000, 2084117165430214309488110424373046137644496633954756774147413672966780031598391634157241325493586422690311231687722539515626958656060000515229575566588616421148592014522298846128432643389344152136661826797568.00000000
0.08500000, 0.01500000, -1724841877808466422018927901648805507516264567676200537790234091260363587310679445696319524780396551314648429436318917522823075092276595836169399052109346259642593109102742956603667858019259222290410283991040.00000000
0.09500000, 0.01500000, 1391437297251896301715160016817757703873128611693915600561598839905122907493680306403037458935080590431495915663554627373116444387693188583998853572816523243220188822684472149793778193307733168973076003553280.00000000
0.10500000, 0.01500000, -1100798535930520591160627202816185226752956596941623771415982128371284244141940910570487748447714234000745028872079860713990316597864803186547025486973418545259653227097804732619522592907043442491105931689984.00000000
0.11500000, 0.01500000, 876280348472958850125462238877504245527827764519758880694276348401643593066840347050588434824044977594035654480911544876897261496782817837412186886109261920303274483548531826823893341079954714976050432966656.00000000
0.12500000, 0.01500000, -721373280115621279636515417682514573939183353599654955057025301643632206532950850415815388198455907295851658318799383562680055924959949519610666370306369205923888589211835066015107321691287832451342256832512.00000000
0.13500000, 0.01500000, 613779290202349740604674232638643932255425251302121492756504052936502706657362961344099245546263671609390539855899158426784012719211498817932658303540451574669575680186400653052963540100461571258676211089408.00000000
0.14500000, 0.01500000, -535970263783681554853685548883201896465256484126511562465691624734614773940187822413062375216120080771783531064993382885880457436300115754176849509580405895982238807053558749269248900701711179467808950976512.00000000
0.15500000, 0.01500000, 477129186468855132608950327168432486729240533809917678028286637881863960844317729804163322975765892597170198957274156635859484708917961514793718915238367643383135551042004434993319922767830032981088601636864.00000000
0.16500000, 0.01500000, -426576814838646931315436068492498401016534543998674743251363579129020295554894689272378013953198318038620919014623165707778830306754458111776713465066318417866242593288834209915849049472523152631045600313344.00000000
0.17500000, 0.01500000, 383976713412039215146668391146482728697856816248221676746317440769847300641461698775400237623607991121640112318074401353092540165676328812493685947207667744176737069757275321757013873296326838418385563287552.00000000
0.18500000, 0.01500000, -344027560110209058715157390187740853552020619948042785525554701605348026917023134555862029137805045545076584210397120236173751236350951112708383728765627774878262944038364981649857606727324963026358488793088.00000000
0.19500000, 0.01500000, 300497003787015854854633405713697436525900577732580876249104521499368150862871815662561447103500265087536458211479687450950506742296808513385465722687122401864499288902963308119851691519042039593841740218368.00000000
0.20500000, 0.01500000, -252736697406257487514134537724829967286945740248091809230239797704819070553185598465900089219702000944906987793294343152881550573040670200999266576728612423683675227206482547062993563268766091484012845465600.00000000
0.21500000, 0.01500000, 201999288960605341155905568412010399607037728969140647943125846066436722555678786272610329255731892001151128103515817572784680798849999848233985151515393963005613385389083997454987538597084845610575551528960.00000000
0.22500000, 0.01500000, -144904238370263074167424295228097553225947137284443027746407125428680398442231422788293125740404725327495399119320430296540560160071283938524643317931492447482226996080758844507801291048392017400704689766400.00000000