TITLE = "Linear advection equation"
VARIABLES = "x", "y", "sol"
ZONE STRANDID=1, SOLUTIONTIME=3.15, I=100, J=100, DATAPACKING=POINT
0.00500000, 0.00500000, 192561746131763118374267983056616837851377763943452906417625642303331615644560659547540346244086485677497256324649832926647133255621594006018850816.00000000
0.01500000, 0.00500000, -133501576847119185988631474822914539875309878574602984477290346446991734393378789423453506918510034321260802095639675142104730284175259501875691520.00000000
0.02500000, 0.00500000, 72888838992562109947055584542156904540841200560340931801790443143463955659715223226838894188725541619450937564980102116891367425587498813835182080.00000000
0.03500000, 0.00500000, -21911564352211008340090681745374002973062803550094221733727473505504002639301174854790613308011167377354396774444134144826386864313270653547446272.00000000
0.04500000, 0.00500000, -10067964695111802130975624877542138257482287635664856316203505002478696362167048275670922266545917354853746760716438083577617749717549951634898944.00000000
0.05500000, 0.00500000, 46417512031586615938436352157828712349840629901999925089589726410966147385493513057858464485853687949299409234396014247210191801542686120496594944.00000000
0.06500000, 0.00500000, -67847136064632584209958482494080552872380841647537694553166112052842478076486652636390810599190823772273320225943273703404886768806225980262711296.00000000
0.07500000, 0.00500000, 107467112930947016674466772650015974404831619158970953369523121565759718759745853973251167498134481892178740679739519927135785303620193326817345536.00000000
0.08500000, 0.00500000, -114461112708435982749498560976707056879224636676132212056133591607576842169582500046767275348017680415472722139592125465011777818159392188572631040.00000000
0.09500000, 0.00500000, 137351444854538841876194902896157590178096091125226519615259894349888702474184761037737003297918627128912101077640987254728482523314540345439551488.00000000
0.10500000, 0.00500000, -137501523117118795919987182155021459676325924856331418782670160540513935417690924047896158346984074753840057846824758684810537902279099118612643840.00000000
0.11500000, 0.00500000, 130625451001059306500795637210410705665198509330820100550908409173641888852566352316775346564751972354775533895834554096255175373670941224054292480.00000000
0.12500000, 0.00500000, -123498011983807801374844989464458625595418893666465382975311192984950641385946538113919770495558453204839696838859066638570693391331932400766681088.00000000
0.13500000, 0.00500000, 119642742976942813722848217670618187949713216288307509587898175870487541715862939156866224730630403561420368698653465140790546073000465653865381888.00000000
0.14500000, 0.00500000, -117603845524355858368676168295599064670709362680429231011312064973645851750716453615085469628039627228436066290110575532857214227834406895821520896.00000000
0.15500000, 0.00500000, 109515726535021310848728837596422342796500579720571635079480535920801509338169944384181933644240819538715450711505937215769808339160171412019216384.00000000
0.16500000, 0.00500000, -93004451418879406806962687817482683154041504791644988410357325434618341131136031343324462799305206352522067206989524830412778041375719063222747136.00000000
0.17500000, 0.00500000, 70874273379381328666899252006060901753711747807340655688270375023427282761787582386388564329406321243469999229669583542575474975388006992106749952.00000000
0.18500000, 0.00500000, -46431098398456712276429381821900728609354819384613483813233131617767520359490457888873507128757456856490767398039890156666499492947730020249370624.00000000
0.19500000, 0.00500000, 21240414367353572051863469690571960060347670671427487372000988703473519248203441597771288964153127601629309586138478142810835693602197807497740288.00000000
0.20500000, 0.00500000, 4384785324706687434477277226817845450411943122196706073975436682655607069818480110370825364091504537718102793995975650643166984720150489657769984.00000000
0.21500000, 0.00500000, -30097319092148984263631555710955092595503218073278035544124159146308910516708270633910727136558949975650946271691160098371264449439815451637972992.00000000
0.22500000, 0.00500000, 55421827452030791412358346606409740464669482887821427483804190944978160502321015720869473628358396513665656483675501618022350678333844969622601728.00000000
0.23500000, 0.00500000, -80114345866637453461405173633555151467311686958325666618145643747595325126757327771444554294681251322863151542738343813498647881510960540663414784.00000000
0.24500000, 0.00500000, 103678928545873732020878404801886640004284717828051337066424206907298285452935198562725920366526576173421184375361665102202375049297527795464798208.00000000
0.25500000, 0.00500000, -124968652727642963334575842843631659974488768232474169637283972549631064426765224027320256843008687412018749656277797598073170368938878156289343488.00000000
0.26500000, 0.00500000, 142699143550540461543959118995189211244389665892982668547769367816590999270810633558817901837209332512809138654039427379279407355764479462240944128.00000000
0.27500000, 0.00500000, -156180354010449442244429418046743054336657881564136316835462253891108433839624912964483670954572942182680048911366169320395401005058233306959577088.00000000
0.28500000, 0.00500000, 165343319521483686172227345203868195354934770078737349311582620579610611382293555319457080837201115730172473003212414804382590862580263279763914752.00000000
0.29500000, 0.00500000, -145859471293626631307297159535350779103139010832401157910571928432094374104996773305473680941584731010607292926399028307072077559582249943125983232.00000000
0.30500000, 0.00500000, 146310749914428241839235060274414959371758550777026022895969466526922572927669090826166223039112178304591124609829772697486036366344030063291269120.00000000
0.31500000, 0.00500000, -166240947220602544534357785870304254358775421194540605758379470198972756594316556209204680852654089613273972370055732837012775593866210074626621440.00000000
0.32500000, 0.00500000, 159732556090035518743363319636235645188292998684278426446147158520675530447941616489147448008241247507318116199044062855621366954117403515279114240.00000000
0.33500000, 0.00500000, -150379484575816363972490649517152027513843946291849334359031326573688132212982155037166076736383320839528306243376138041353397949973664376893210624.00000000
0.34500000, 0.00500000, 137521828443159591166290065594131998257617138104211655995258486103083402133559663805554479448826183912695745644459747759174811741502672347391328256.00000000
0.35500000, 0.00500000, -121767406103173365477158808938291795374919127745578465692175843462240324971359327730084600375854749131020556418260522066754811874942445600362201088.00000000
0.36500000, 0.00500000, 105139814974199055073193200014063967257802269888158347264947228792192369482006030317763041624258191851188116375946666620080554370386293145072566272.00000000
0.37500000, 0.00500000, -89860436170943067009800482739052605402227312475688194618128674273630229398858485561409744886095403762647779456510948111458615739900007572230373376.00000000
0.38500000, 0.00500000, 77326581104619858779246508082711886441748941240960589045294558282398138761355201268423751115711825693907805917450596356009142334058290659777839104.00000000
0.39500000, 0.00500000, -68320005345896725589491042224141886310644540979245865565241406423587611206353424583543293766793874625970052990457818518891229377287333067517591552.00000000
0.40500000, 0.00500000, 63736989673314871520384680218122626156012745545171387861583727309671348885561085374204757276286044197523207564624663937028650139815833600580911104.00000000
0.41500000, 0.00500000, -64288246182685843069793929417218747142509897052344373890850958451637402420132515868117064235086136948048554959982892649240265328421733404350873600.00000000
0.42500000, 0.00500000, 69934987252528313895993158575738022510963961045939952874938084710884085896435784200772785984786572680407779249128481585554637523206567445322006528.00000000
0.43500000, 0.00500000, -80002982807520169895427564023064320467636964351423802372505040778894069587140838084816604724283845681796320606331702533405949001091076816596107264.00000000
0.44500000, 0.00500000, 93393444941899100059489577560612409064270887948734780746690132504435859064082662038122686230212084221695812737971835126033625367856689663740739584.00000000
0.45500000, 0.00500000, -108433902840766905708807185790675502423452725798088173275817707084544004607045525657723247135879773695915556013249427541479037237995203689441132544.00000000
0.46500000, 0.00500000, 122759114186409646828435483055641847968276152748556699511175742513728100610904791633049171384726181389537951849765453511334278607695372479348342784.00000000
0.47500000, 0.00500000, -133654024413930864449173763173323640768252772251588243422331233863048027393845992991826014998825249470558468814910022630949688285730327380470267904.00000000
0.48500000, 0.00500000, 138724404162037033079530240137753786494140456713085181543705712118447609734328292947637925611846360289540108465076143766399279413728415490301231104.00000000
0.49500000, 0.00500000, -134833705148574324160862019123943077536037050838119687440698288400454674653004371569352571617186512260936012551488906074907269460993018675209437184.00000000
0.50500000, 0.00500000, 121246890050938657099809189324671895935609922576267848509213620246654636934645823089443395875269218365840635098779993774711247042025024665172312064.00000000
0.51500000, 0.00500000, -102364397064540588500160283695851119942866408684933147629925061005170846529540721925022956708750832946488777979890401050005567060756708885979463680.00000000
0.52500000, 0.00500000, 77965097751020502796281473111858442811798955532403218941799159927874204674231925615270329509694262911295127624271253883728809485419790146593619968.00000000
0.53500000, 0.00500000, -44005841930646153063940281390945745249834939843806287234042901455141640567468750304051826482559163355465017065373603584711016038409862909748314112.00000000
0.54500000, 0.00500000, 1011375658791359806427567831259791818727247326622660781857799964087160997264813996855839879956578943116274801600261352696501275314488528588505088.00000000
0.55500000, 0.00500000, 50446978402501697902283944026895677089218037666781368246911679315817487970045740716970368754157344838447205073447147062828081065026372239024455680.00000000
0.56500000, 0.00500000, -109508220616305297523091417223473643671418959025154170847847682814351474584749498364137861684626872060123022142322568623061041662295467028939538432.00000000
0.57500000, 0.00500000, 174528423640324577173917236991512902811218350124849628100991729614760556342290852669684401941845220892752799535404379839311641939508054391141695488.00000000
0.58500000, 0.00500000, -246953777683580984717060574882223700909866692120454730011609154897216253236656307467468963983896458673827804254501863529333082325607979857716707328.00000000
0.59500000, 0.00500000, 327713885202983937306403360959411795825249840128569344788997337667660026330981586575017975016879094443397576653619310656124986764708624150223126528.00000000
0.60500000, 0.00500000, -414205132133157020860562639337446982875615167223952267506263835876320101367440207173925584968422204115718479637726038568993178403999138624074416128.00000000
0.61500000, 0.00500000, 502320922056335370511832229808679677504716788250341127917913077671050654135750537874588346125717227532980694031064817953539077317603067773518348288.00000000
0.62500000, 0.00500000, -588528536668822808554069837477428436265931627002552865339526378405992822126976943967738966802776915791632792589595171443747962763154875749758926848.00000000
0.63500000, 0.00500000, 670585248859242542045428109408658343617736882700263084306168974897054449554343644745014247335434415437893689960410761663967616314342773096766767104.00000000
0.64500000, 0.00500000, -746336619614041223234274517404838667500731659088783648836873521990365736323172275660108155645667883591467550834858321006240880018727304532060012544.00000000
0.65500000, 0.00500000, 812559592310937580320663596185254196247410818962255800632048815740490111178870194675293043800203184586705203240154809373903220525253275583879577600.00000000
0.66500000, 0.00500000, -866395040061274271913738318558779923727858629709794441244573084733632818278066707605754005944653526417075649948144128312802992237557683027416449024.00000000
0.67500000, 0.00500000, 906363487751894954020326985337145750303239723630707219782437178200690734480039224868370313084281082313723040135367558624374278041698910468441112576.00000000
0.68500000, 0.00500000, -932482530293505978236120588810993418550310039827000011701044949795864973689439555706176684754764988059542583734849400634256783273271295908564172800.00000000
0.69500000, 0.00500000, 945490228226066751100421378258579220730798530169689346390172789486646408398800548793765300040697064084742017007396494962458239066140674277825839104.00000000
0.70500000, 0.00500000, -946752058719903693930172069378805499339902513609093985463449918098990379990642903449411769780309721777848837631812248324942807724333303857839865856.00000000
0.71500000, 0.00500000, 938218927753033420794194765924868817330124784301846272773374342261066040786106644194200224251695165532480753707473366612810412692495796600844582912.00000000
0.72500000, 0.00500000, -918501786327383223332291287879189006293603792737799529614524148882856500543704884207337221470403234113168493446319877996447448980844230074414661632.00000000
0.73500000, 0.00500000, 883573269522728897446750953184345749881113897328241619147153347496568260060321724956969835354704333520537658385840869143627867183746523728483188736.00000000
0.74500000, 0.00500000, -829676527085633736804852757268169423141887906084653536044000557854109611639411239224031728493030044011217411829130842146454095893395411736612306944.00000000
0.75500000, 0.00500000, 529229550731868661161332029996192873644957651131570860890034922923081176077371543638285530524761897649325046300691057164992913134259700852565475328.00000000
0.76500000, 0.00500000, -681816600719269689098148647552449356756813088391528956496254677497847604646480735826393050276042729246220252659858599359834528805329192234606657536.00000000
0.77500000, 0.00500000, 594879793046141147166612043591011483581249737866817532423410144099174334907306915607565644119928686756526967114152676389261626708993086976732168192.00000000
0.78500000, 0.00500000, -510242921636004565869949964682864001182105209951633233984733614992693552941577923020816474276246227316232239626380667375684616886219914610082840576.00000000
0.79500000, 0.00500000, 378709338827459151904554652406722999476080687632841894757725628589061095807165733048876046576928820151202410240502915148703120148524446984123187200.00000000
0.80500000, 0.00500000, -311100808919392635631074818094056168831363620427801095922568358610596296383647791888094581990040442135322495258980573486449297808134297405343399936.00000000
0.81500000, 0.00500000, 295439241965183436939791185282337714144368484472266197748774212722538727321659337952785434433760623051533249467110506013656548074025702725892702208.00000000
0.82500000, 0.00500000, -199816322933412269148282017332439427451258377782981957724701958523999761678427597773966850271385162401341691154979680328071490617185012332852412416.00000000
0.83500000, 0.00500000, 95813501927021532585027150934486129718005653971968363274966818808197654790029173259778022339350124623489161924148269364980510744346205685351972864.00000000
0.84500000, 0.00500000, 10330533488564054431807945121074023694602986744281204339325595054130877697066225304788467520154917387319654973973603023729237304211143319812571136.00000000
0.85500000, 0.00500000, -111764912582428891327583109299386733112866835620469457599652708373259746111805757976009012478333190804091890775885634978758095346115446885345918976.00000000
0.86500000, 0.00500000, 208147520607797817775688708826240750526319875041794835846564810487143983481548183513896711484509045463086491906911874986938815805845676624952950784.00000000
0.87500000, 0.00500000, -293948933536632094076508932385375810847405353588715747355534322545341657909649527974458961311207537481557727902699015652262642695837824367957377024.00000000
0.88500000, 0.00500000, 370502475216008603863858930578271721188604466123957585503605449176052345680698592567766846733878476556947425516789701428735030079784833903375679488.00000000
0.89500000, 0.00500000, -424042591280010241516793603481010046888946626030812448514327576382502595318380113422634728490935438222618191153120715542966083915399957353584394240.00000000
0.90500000, 0.00500000, 458381420771114578534393276824124525101104742611073482135580230593542712220364110730180734981878572572002841411805871244902426945944226065060724736.00000000
0.91500000, 0.00500000, -498453642000433597931580343873151051672397473695153032714301356401106508469307411259629721183608863954332324465260187421218838334559236951942103040.00000000
0.92500000, 0.00500000, 498295779567386524208684787740732778644563890503055360502301439342256372004140658934317468879550054977145538224678640315246518156987048902766100480.00000000
0.93500000, 0.00500000, -449294879009912472566723490173457370057244746926423526065246291624754423312313786855190017384217823174690221776314055229908175544445154938178240512.00000000
0.94500000, 0.00500000, 426865290064927146189658181688940411263583516568709086304613884813372731882550287314467335274219395751663269459433979373877555893954001829967691776.00000000
0.95500000, 0.00500000, -432809022669220090261743816274740739675915212868866574052982331768872045716998542257825968720772518270112572020931084203851938459105959025009754112.00000000
0.96500000, 0.00500000, 412955707170989345247732669336841102106001355035719886146416801549265775395559331293017004774684996235817845303124380988013450671911918637674397696.00000000
0.97500000, 0.00500000, -365691778205261548472052209999736665243621645137528230746286617869785157830667430805701542655445791323993587370883871703542352514284915065515671552.00000000
0.98500000, 0.00500000, 310381658954997549526735011004387971566005577088868793227838409423582785467493110400488168404133167033286126877443660366242612052707531029068382208.00000000
0.99500000, 0.00500000, -251733875039673211446389214195764303419852120374154407844566535069686422577008067727476523142901240003129315419631560302626149049067586717778706432.00000000
0.00500000, 0.01500000, -162805073558234544714120551068119257294140096743625577091178931460967578348233029052516326910477920983349014789370547714736161875845636768753778688.00000000
0.01500000, 0.01500000, 107542053041284468014184723418155901550311349621658014971538814969259397326322904768659281351295201883568016664898310469075256826747479918657929216.00000000
0.02500000, 0.01500000, -54471706020043536936209298110104545818706595232035602277500299833963276034959824179901006256378276948861464217728657156416580678966824166737575936.00000000
0.03500000, 0.01500000, 12270341867503411911406380556933183364588772410636735286583789983053887946067337960411324647327623056383944720918364621788877636696012503216291840.00000000
0.04500000, 0.01500000, 26852957917754742845713477238697141627924387166441595907980190533501402892479065216225052182283490275018264700208125561342034959133848539609694208.00000000
0.05500000, 0.01500000, -61519680361732314701724213863317374771425709109232154642032956848231320172762473288708943571444153721805406467440705992205027242511536266183442432.00000000
0.06500000, 0.01500000, 92160966209406046895857866151475037944949774329250298222286599294181833293796023217674729511737295564026541660656917808001372765513952400255221760.00000000
0.07500000, 0.01500000, -118233838833967372712660865728925377031134836917305914095994259269184464852183729606527506305984687596421399720275971618838557690865884775504150528.00000000
0.08500000, 0.01500000, 135941616273462562314492569760659794674281522370313739075300555342291751230182048372027229929000735276185794767032980580788673215202697794474213376.00000000
0.09500000, 0.01500000, -142974613212037673092244901201505550197852827421324131324890955785109535739681112842977744560646281095295863475030742061124987479425099824292167680.00000000
0.10500000, 0.01500000, 140879938273285356760354572157574968968804116145246556699485998016673375243191723848626786253300689747670464664138040017490027269017940710008029184.00000000
0.11500000, 0.01500000, -133152385234009217875809344941239592591405462912769080542099689861446575005641546036167513274956172512759432278199577159548305385490100101293539328.00000000
0.12500000, 0.01500000, 125771400129424251597631849050290095558446386950183596207554307126351919830610513689416138368832691377512063452243608266912602253314485311212879872.00000000
0.13500000, 0.01500000, -123210759423553947839326297101642679316754027125072358147271454733503526581505612934565803388629167750588887391491272348484756467578512296852324352.00000000
0.14500000, 0.01500000, 119426164597288122552694658859668694628652718395498136168858182318641110239468318708100180424988545987832804207246866580908374476612085016424349696.00000000
0.15500000, 0.01500000, -108276357670009326175440657451636951050156932917536399717052930248748010540193606961384302721963603888801153867888578528069128086041732818789203968.00000000
0.16500000, 0.01500000, 90303147214187212984278911470227287749235868191523506279688360168088370074571809644143385982862187517537306653266336259077640452312782882016854016.00000000
0.17500000, 0.01500000, -68703924548230704453703737844604387471194211169071998297040355279475345084326796749146704439799985652868957450133397102722231350289518219963138048.00000000
0.18500000, 0.01500000, 45619341385870593528578597234736477221637914920726080209849504717054767856370636716065107649803947719891286539837619562199953618712931568338337792.00000000
0.19500000, 0.01500000, -21892358455515756452910341177029056249932744041329814992009424563760111750689473000741915810063722215560701724884049798193177060936481498334232576.00000000
0.20500000, 0.01500000, -1859262282371292087540785129963727865910735175790302127140956849271117653578853308528061970199820161010324394344571666913076408895074429873160192.00000000
0.21500000, 0.01500000, 24902417810096117554909639434009577322221364344904227904123440343093324414589142576842292150878990966953485076706961851221220619701970852781228032.00000000
0.22500000, 0.01500000, -46834036699117760775826379209092728305263148517197431668169403617096656004009894495052507763365969540614477951379766582468876858691241244681568256.00000000
0.23500000, 0.01500000, 67648046573097870102981354543643128450419329889386420983607043326804254152087702415355511624962674281754522769637411492343334441333176095853248512.00000000
0.24500000, 0.01500000, -87069569091763479229699547847534611922403499165140483874312034611540429043404753328606868576270731484735095939883332174933177661363349454707490816.00000000
0.25500000, 0.01500000, 104244842360833413700682774855013165069879828034987315508549713568008074543817276734397834327125769254230683628047206689267782722897706211484893184.00000000
0.26500000, 0.01500000, -118317349883854619297628760525441624152026003531858809203316367149560006283155319214167684722660409485158737611925851470754823964463591640637898752.00000000
0.27500000, 0.01500000, 128997445895865959323612265623588812257640102986678562186519646415989603480439481802477047211005609240866128741387907967100818805865053483224268800.00000000
0.28500000, 0.01500000, -136269630274496298583005569449201310785519192031922010873014478619860837346492694434690145007302764588163756722516066228573539528880691284105232384.00000000
0.29500000, 0.01500000, 139948194001241609300331829585188288732208841493032613058548913628161227246406478846159679326846529317279175149421683084398961947623285636353490944.00000000
0.30500000, 0.01500000, -140080213966121647274952345999514423626094404092778614390732041618489788885420080577935359662386456478262643283090162230397150910084431802500382720.00000000
0.31500000, 0.01500000, 137184894613680041854513533199792444604342671645495466637170758368047572668018443017107406262769244647885363081504642089598044865348769477344362496.00000000
0.32500000, 0.01500000, -131608685414648873069199307160044551155597828996200559853584655255890411122056373501453992322348292324102885812133897400271174730895586594203369472.00000000
0.33500000, 0.01500000, 123233069087661191909926772216567815684354829298880650561679985896640565635472829542441957527764981426889388793753287754300260836774247395867230208.00000000
0.34500000, 0.01500000, -112345363357258707729967069016585174363797825068850136410570819092535029598370226544335108172191854795779941936138218135881959429576776241727406080.00000000
0.35500000, 0.01500000, 100269150002817285668636571844139420952391337328051045959900233265145531681069748996151418107181905045875512910991103970528118597362057209591103488.00000000
0.36500000, 0.01500000, -88783307238747573541402326635610960921033969981438950909843981582068979805467340323713207697056226794590143072936253114529092236133078339434840064.00000000
0.37500000, 0.01500000, 79216933111719392993384116288166092833954779930627537544943145082226707111856894029750434788917161037749721483525092043506591347647521514330259456.00000000
0.38500000, 0.01500000, -72317274733937378951320885163814109998150185487236476212103201293417851949077634327523572793694771528757632134477466732755871737306246075830501376.00000000
0.39500000, 0.01500000, 68804295112648670857427061296201491366200484184255767475958336000776599586407402051602264636684832846585426868544578375425288899493761415099973632.00000000
0.40500000, 0.01500000, -69447039426838724439185672093624974939775454970490023829215875464135048818263634933115928584035059135416754553736290923524537567431645577972023296.00000000
0.41500000, 0.01500000, 74554586248821306239642009112618107573102393903130715825829286702975561039943460259083843624708723358569130639282749963639764067544039332480286720.00000000
0.42500000, 0.01500000, -83758312479324147637523738784568400662260890842789123097298785014641169258899330004416336279576192787467612509560350863324545703654261520871718912.00000000
0.43500000, 0.01500000, 96185657085473384155692428347151028945468116826368549015793900261772164791022087769369764955112965315124329862938490074714625451369640050959581184.00000000
0.44500000, 0.01500000, -110515653345049646575266630204139277756747631466535879250438342485318050340161467339859079810370631625703999481690672120963301386348789936697638912.00000000
0.45500000, 0.01500000, 124854819414240120143239007437690970401572131844740373715105907667764836200944939442842178926248889369658756069022463062009961472876643962578796544.00000000
0.46500000, 0.01500000, -136807322064256289654125935563112063556027071544974115125510534566508788150423065303511536955762162768225602587078722283726712725252508635854012416.00000000
0.47500000, 0.01500000, 143936736995219041215848262894371388059735446098994936898563358267879784288143061509095694193386338122096824958568541121905847853358608769433468928.00000000
0.48500000, 0.01500000, -144412356079091599335061932483618620303139180395519219973429820891724800958010682907036482807267752965954781796901480540561186851235047160269504512.00000000
0.49500000, 0.01500000, 135751843407298871266399458798283488937410743703509492986162666898732115042228631745259911267905412256211119404384880762852017084421152290616901632.00000000
0.50500000, 0.01500000, -119281579294263557023795446159291334344687858699991219946180108944858593960087093398742194652793750802568971206595266756966450927906055942941179904.00000000
0.51500000, 0.01500000, 98061966489591873490802044646515663329134915708495101478433594746144088480422720851275208026545000947379082714846289587695908138114719125520515072.00000000
0.52500000, 0.01500000, -68875573071765349439586779234967275572073897137993473203604522011236272341661341905156320166832410866903455532063619874690139341940878726083379200.00000000
0.53500000, 0.01500000, 31037334670748645622018024184134142479744071940503944984612741348216387479249175222912114579481237035454104051204169953976562146720853747818299392.00000000
0.54500000, 0.01500000, 13933572716928539309591560163682957062038554069229601230902825694436430471854580003104421318487848121130657626866891680531848518954653839429468160.00000000
0.55500000, 0.01500000, -66544525442189103138312728175604188373125747236604723096252220070963737896645905703352425211381194503389322371924294874904780810198445699570335744.00000000
0.56500000, 0.01500000, 124798398605898920867600418812773157001823793992192260455972785099222141887499839300098387049265561790226336518333479741296015090589535601996857344.00000000
0.57500000, 0.01500000, -187991806671165038506549177441923882369256649507161229593724310282217759699341000836842685288578896107698008570221839393549101521790819595032985600.00000000
0.58500000, 0.01500000, 257044059224302533120005796101433262768429331791492143248168331446220484988218619668206866590951440616291190563560951336452805509166637389325533184.00000000
0.59500000, 0.01500000, -331181546099609114572096903120156715323005331979269494166317879705076655020260703646958136995093548724000051167215605887563900357867527064155848704.00000000
0.60500000, 0.01500000, 408009849617322583674039403651417598678080074067370559995135271648678463760004699793783698357059390025593073782544122356438199435235696139749556224.00000000
0.61500000, 0.01500000, -484640601638676300996350150772861183060801503614015087925554296954706264165197002444123718468993207547849624775430278016303713968002514481947082752.00000000
0.62500000, 0.01500000, 558710934842654842226940955610856360244225972371642294346855126974890405596004073804824258518679639968241240378898589649265208828042308230961954816.00000000
0.63500000, 0.01500000, -627950627183232125151592653680291804877189840311136187414290350264254982967234440605197111748104572785160054977623388473038442598097185244606103552.00000000