TITLE = "Linear advection equation"
VARIABLES = "x", "y", "sol"
ZONE STRANDID=1, SOLUTIONTIME=4.1, I=100, J=100, DATAPACKING=POINT
0.00500000, 0.00500000, 9499997913204689534998954868965054031429181917528795540693096913550151590905703066887664517682865589143827011047370113695113183127995737959748705037494357513008155375474526392893835262820352.00000000
0.01500000, 0.00500000, -16744510020918174697169090529713909834486826570902643043884664324699606635137623585488894264952651029649613522716981666364547255967888142497510501904959657105900468689816053159041055357665280.00000000
0.02500000, 0.00500000, 23857994557025052287651540771136381531067985326417631773283765552859964239526241230419357389997495434681785933176034296444203714760037924603686313175309283765512551937476388809040862363254784.00000000
0.03500000, 0.00500000, -30454665663192960347853216548479328628017899784871233783336083671767343576985356407719375197584015644925662734711448552875592554361185181330225850944339934420033235039237496125058615032676352.00000000
0.04500000, 0.00500000, 36947561420570370761786437808786196660855311134269493220344799481769654973975846760935671830047987131861841977210168533683253149849777471779535337798602475709470208497445311101081978411155456.00000000
0.05500000, 0.00500000, -44385569412007354652927123434184741498897999315578145198851459234591087217972206299183899674468916312625897615381658022065736881708823294414333231655098202747290140122008524076080012646678528.00000000
0.06500000, 0.00500000, 52796178106905360194210703930802169351350658863820414254161284479173123317472181535920059369756441598490921262059121539240663280856984832264160834493870025305017010988922950380879805864214528.00000000
0.07500000, 0.00500000, -61470637500798343844864406408775884248851268704853664909626215736816263733324853516955299634299400259332944324525676134497167530963574211405951997821130356401935858989205091897175159785652224.00000000
0.08500000, 0.00500000, 70371301874752372098800862584479410341864255296593251411757347573121684681157759972313695965558764420312772702315292112562238229707376548841814962793417118740338045127470992619181076085997568.00000000
0.09500000, 0.00500000, -79777703598063148050184127032401141026724854032408657638661988150944668073506710031281734250804240633499106419980279404502217434497515252399943901844163587200763479414537568221218335319130112.00000000
0.10500000, 0.00500000, 89201054461480582906168103758221628199373121102617245742025872818242606441187273925197926122843205810728072371575927271027542548589088327879594147217154042549589564388245753247212906699816960.00000000
0.11500000, 0.00500000, -98981406988772544113643365781458471013601126941272401557831474005447030501468009152983661033311139420151938929263544154910926910968299971949821126747904006610784123741621712179515798526623744.00000000
0.12500000, 0.00500000, 109803595951011240460552737406424705415304623509247555600687922452422330228705755046709372643374867237431829178637786229215190699910834983284207245931695068188889782164740309786642670726152192.00000000
0.13500000, 0.00500000, -119460327284731510898146124388345922837279048553714963898742193311605824035863107332280639329586088591581830637083137209268931582083698432690317860934996740075607384198300941657376005772279808.00000000
0.14500000, 0.00500000, 126327470010308375100907694656792650419180492966919489397005632748282422633416760765067514239048988806759838349670448626714622600759764427144334611658021461723134366775932836523798892478726144.00000000
0.15500000, 0.00500000, -133217624777732434225858078299208808674190116786900328806465699227914256618394838368254650273251673008992744103027466268570711828478758130430272090772605695331218443854723957420050955989155840.00000000
0.16500000, 0.00500000, 141751669469514819904161623546618265117112021256418498855776997401073055566537906037779523833982595036891429673997412502722340172157800150407276607585032446873030187359059907009551164963291136.00000000
0.17500000, 0.00500000, -148632166355555214044840163749999916982476252429946103655871303115877943100627556822776563854784955608064424395744636324732663893562929605087408338146632856157953360599102561615684881562468352.00000000
0.18500000, 0.00500000, 150883050887900148482520217350241946826160315335951601232680391491517781421161714616602749024427296249231170076498068547949898700433086842809797029173040090621805675185288009192599554946498560.00000000
0.19500000, 0.00500000, -149066835479642983568572474754994607753610956648193345477164654618835109607944027298523430973667658479680842676296803128783414206432671738131468597347183472665642752056332172161833111860019200.00000000
0.20500000, 0.00500000, 144674733769159248261531132840676792521576723189069212395892794778641892823574157273816487079141115603028532917385892626556296079472123727872303348791525287662820430627113149293705017606275072.00000000
0.21500000, 0.00500000, -138613534263039524880086280868780139806861523150521324769791606456212470211910349843574645509635985027420951610067687345316862566758822784148559316171070733015674242485190764363018149396742144.00000000
0.22500000, 0.00500000, 131097857061575674856695242185819358156381553850129619236379998653257781156047319698951624959962631821288544139051695236557110323737727919994965274582949065494610923990029603271310906159529984.00000000
0.23500000, 0.00500000, -122172764385986115904278890029020205194460644760347359767077265168974043419244266256602291452017878830090937434146909227068725975798575618627009756191487884599450889989221110696314708397391872.00000000
0.24500000, 0.00500000, 112348516088823414708743673191005163082822949246957312917564438763334302274587448309234959171233887426609259293856376775934187573714762490877137133577434707477572716449853616077714637923024896.00000000
0.25500000, 0.00500000, -102075728981128866406399091876231662185176771185112575597580382050663576029341746701058938454999760511538453610495701270064849715127842686563263883110615967634980340496680808527677222100664320.00000000
0.26500000, 0.00500000, 91424463598049853162896771611751401578011337646290449560815256919579221115905570667730548539117504024055149059481489690521133042302033998874792079707787902230797635257676577384949794811674624.00000000
0.27500000, 0.00500000, -80204865801039174386836724645435211544185981832753015579916132301954196657262167229539212285305900449628189881968751860609047643626385752991102289061048952101235297413748354477164868248010752.00000000
0.28500000, 0.00500000, 68119070217217707072397604134900920141278585675125129024971021362718494855174246305691788955014330068255448236732625070244412921780994779911102982948995130584995462186192962000101179098398720.00000000
0.29500000, 0.00500000, -54966833925684663610575145877515025103153923304135803483756990392348777259085441584644871182867209133872554380901387164558341980021700975235443081800070908756205613318367130575377974167601152.00000000
0.30500000, 0.00500000, 40841985109035544891655821398012451003254977275230260388173088272433342976618201037850306227622488359360732737151156190674913332480632458912271252439210881763039970395007385029543241535455232.00000000
0.31500000, 0.00500000, -26125070060728673623145332255000109223132865296262034225600001579452696317279098622706742593274114376132542500378024998228000070272241439878014193473871882020099623613448898279475305942876160.00000000
0.32500000, 0.00500000, 11298841069551784708400800499240033874597177233377529789091601594203285522852664489017368858576281494245073073141917479070247469983992840205716553045485788948738664908138905075656664715100160.00000000
0.33500000, 0.00500000, 3194621974496081744235765314947792695793902154411322380883779269948444268062315748448441394663718560331818473239570508844462080785198291634714510052159908721972146247974196479467089978982400.00000000
0.34500000, 0.00500000, -16989709641278442677291009676365045587920188444336986361786670107556888701922306383487362561401297839565146410331812435382149341700976462925076017359984943340377761430134074526572734685642752.00000000
0.35500000, 0.00500000, 29866731729626515051676336318199957108088268831897245661707344993200627033921812327562534199263666242395657604101888643581953567878435206285455183615381604906688925621314349573811684782374912.00000000
0.36500000, 0.00500000, -41829984375459042951843055896835624101137214362883069239308804479943668107503044690605547918105415867542755800607862502993392979498681783594978349275821835436309472103100456041460745646374912.00000000
0.37500000, 0.00500000, 53126314082267328108429190067292053665957723970260031428210987026105662897485937188459403960696648844201473985299529896229834368430945737950584903409728939118605723610913594574368744723709952.00000000
0.38500000, 0.00500000, -64260039821581370080979349376459293468925151097158962087560337927140391040186597949049262572889575406725014052779050318709572032044180772164463974422914873608705850197214400205057135715811328.00000000
0.39500000, 0.00500000, 75778921921633054228798213472434607495935972755699896440775325643107186464914090803411043884355004019790792435248153658300355397871792702962806401543974361618085428838490991748864874538598400.00000000
0.40500000, 0.00500000, -87826130597492418260536476736462843589437567463423581918357090927338181251749311889101412256338326504371029709891377531300573638523119204212033939023824101225508674201088842806188552958771200.00000000
0.41500000, 0.00500000, 99971486585577254868878091114039617155826983197549598555216718280195762527700598662406862059479935670067629638925520422792308308622401680831049021474683348786260027098882241652428095027675136.00000000
0.42500000, 0.00500000, -111507325054548531599654984311217774545592318390752373802784987746195643801127657572186076823392992490920258551678515832123183078998552439793158181730489724976499676077433044405103689958686720.00000000
0.43500000, 0.00500000, 121857872856333945289843834966440362322241354243938337833972201446449729110624972200623900077279843795696068577510719353082818809691225602584748061519111672196325128020045853706054738791890944.00000000
0.44500000, 0.00500000, -130838368833089035146119451665572616086849173332536220361802192165109502014933274726774925006465058063575563681882311726571299980126041447892517278923771547157663687893190484127633102216364032.00000000
0.45500000, 0.00500000, 138733297872827897114391404067429804526535132165803223256130754278735695099911250348660404443012572714011329089845901858202559382289825371063556061353807423522805887578999082618839022908211200.00000000
0.46500000, 0.00500000, -146012420273480203922557144993038956142475215315247636793442357664772719316054032921796342003837731315913324897112373429890317998700147170909135636907823172423484563960701579198425723117240320.00000000
0.47500000, 0.00500000, 152929154386227807196256969181676076008133207598304663302252449792434744418458874225543080107200394268571195223316390657048154549772637208100324261603601864562741622520129680240295982263173120.00000000
0.48500000, 0.00500000, -159679003645699179533336337336128689332210466050764120727337019692144491971174766910549429586780954450619859860478666155554620739832107001554587323562188954076771184828233849093645027409657856.00000000
0.49500000, 0.00500000, 166732087198050774413642325643737136700718067700738438908392493747791892346259496582352693423902937129937969323071651455283790976147227288356966541535835243031834915870056642448440080784687104.00000000
0.50500000, 0.00500000, -174681226159784237467518468078253817053072875949647687672167912604399191922198845669662866360151431487814654990024201313442668208475309002359753083158914929636269309948299592368467135852183552.00000000
0.51500000, 0.00500000, 184124186578265827795749650919076247732946423292909971828322728874876716116931293771915665157807944595764708528419492528392181282556170297194304512545869494889466375100738100505977493957640192.00000000
0.52500000, 0.00500000, -195741035035274320835116179952756432499186419762902216503749944163624074200052893958727251598590058330896135094426959062154319575366354941147059543466993075857368906553939223846855356595568640.00000000
0.53500000, 0.00500000, 209870925690173656837886094917695762119438822034214944618444808018192992965896297000183671607683727531583056708924221084780733238158185311313077460096299078308754413483932839392459570322341888.00000000
0.54500000, 0.00500000, -225916034860920520921635386507948579525781266736017349674409107776913192301905252155977081556581038282104736152295378170440895536737350694609923795615691782205754024404511789104709015126933504.00000000
0.55500000, 0.00500000, 242683516956724152527729287066880992416474599940396942558877975496821976942199482409538478182621423741869658298616040426499557385252369824747771970478468894218434156083952024060411186111315968.00000000
0.56500000, 0.00500000, -259373310071412188938995622603026821316930282296204962164337479742461833086628005790884519389875048533057902983253167125474140794552138450094980818267474350874318512129127156720489967694905344.00000000
0.57500000, 0.00500000, 276449628747321678204631991334749029411006638058441918390417625398697875933334852762323689459480464303597126681310803202505774712228448907465202775438700885881498043872657870276282614275899392.00000000
0.58500000, 0.00500000, -296199122260780041397730030584682369051800999206254119918652019340104083339404427917978915068100575738528405273095874104162315710879736424914292017468100001983739949112994215997146445780090880.00000000
0.59500000, 0.00500000, 321136777045314487548280934734528059300587565749079401219954153430699221837406358073575495047110149654025592910749573040259607302867795019542757010291114360492399600725022578250016662587703296.00000000
0.60500000, 0.00500000, -351071806948357317324421890942423154963710390352393567565316989401487111229466280426472706910078245898155981799967211431405984061593826404124964405998464236988607208826505880275255179901665280.00000000
0.61500000, 0.00500000, 383722022682288622147249971711973959915152027726583133379906232932232700119094822497771998099062788601053286027690820132051236091868198429963997303859102155033980275484847150228588088317181952.00000000
0.62500000, 0.00500000, -417555318412028863170843629535395705286045940914444188021985276695463349150215197053397588819366361783735462158229138827565773126386674300103695517215884146523670400895648224667595286012493824.00000000
0.63500000, 0.00500000, 452378648103706908493745969850662394723386661666288276405485469368540862654301170979326168382127022839005613246744005438740974230986573062915997008459787651675968108899714496902052046104952832.00000000
0.64500000, 0.00500000, -488895837649981998642102831205047870869851116513429290352572201827377578548489981076344345145709348422324209519162358726222201787642181923086794460318768429870990538433480782595245465537609728.00000000
0.65500000, 0.00500000, 527859657074211932203429757023614024994736864879154731348475453361346812805158272954488075403952172135025485575718905435459930762092496294577776144120054822469861595772234636317334563448684544.00000000
0.66500000, 0.00500000, -568021391394203417018146002597062068507522869463130920380689719912583151705071644599172787814890390532903471596296026669486175908156583493719443162004629007603849208181173078194121732693950464.00000000
0.67500000, 0.00500000, 605939617687686028633922044679657592911012923917265473007734621873654935521276892010271188209710451706991954793357096975659476108855407035425850639939811204839563685613923554212850753922400256.00000000
0.68500000, 0.00500000, -612483971939590985309103786594250723400450699606755271189545914415455184414020114591328316918846815018777067989870408691372856159175443441651628407173446654031450319554557939788903465380478976.00000000
0.69500000, 0.00500000, 585530304123487986241648075078513139242725743657431106913225967642585281150858586472055797767434129708599474558927955007620923916866030933491881811483552551054914404955050041496068973855244288.00000000
0.70500000, 0.00500000, -603457140732659777830331369857097327313611326491691779714852327559884117495468006163772583423063031945756020298933772885235402533464086614831309234391060088780374157704718932179264331420008448.00000000
0.71500000, 0.00500000, 668723356990061352937484462797167781401646967129653323902220806885874008976936874774314042124841747349851722900494799737291961697798372892784018172949438491775528448576994521317745372824600576.00000000
0.72500000, 0.00500000, -704801135390845900989303809937041719538922456201412713903213107813473117038949772162055368959468140513504060504981905588694497618618391924368563872868133840907855537554927427753638305841807360.00000000
0.73500000, 0.00500000, 713894864638910003785905895528881397530884643721418783444963441566611515434628501544057157930188774536733684531696717905899369928052139435262087197259980746383556941739059227647287884255330304.00000000
0.74500000, 0.00500000, -722561374765003887985870488288585478613193050470421906599838182800593204179460176903367632321207851030531423831687115952565293413083056341804606631922627243263986391838322985611510756558241792.00000000
0.75500000, 0.00500000, 725567810450231360159818091414819783854282698589409480209762322788705574375350550688683274276242936037597101066813525312260441748939712536240970399901249755121469943326729272988743666675744768.00000000
0.76500000, 0.00500000, -715204024957371922474679949908583677830605213286263082271808176778138727654953557594091113804615429829635188955804051054986941042600672497933751448706590479909682052689512744688500670761795584.00000000
0.77500000, 0.00500000, 458313356621339295451068304880606953391938917139424856143262704136487244557613184546012269496493028085978139637526641823795744392350800464958567632540633599287862983933546661438307424916209664.00000000
0.78500000, 0.00500000, -622533966238941622633456475134536368756402310868674550498395664296763092856400770041983669099458723326698511791593115331408358174097772175047604394160384692053819317924118775392062836152729600.00000000
0.79500000, 0.00500000, 548386548090819337122906537873381555441246908133362388044607739971641996040542777458119060142469254626818879283518615103721933067015842081980898451371926649747331417803093390668545093569347584.00000000
0.80500000, 0.00500000, -517968174403281397766089547263474889954848332824414968512121946219524217883599242433184580950051837822380752359853207283623135356432985745388699097452343346755715179603563897085637845455994880.00000000
0.81500000, 0.00500000, 484955205857274412687666487388014413652226507818266715935411847341402245275376726361777511786381668266439919447824642555870457752947108350432304275200098203107162164568393607575430402504916992.00000000
0.82500000, 0.00500000, -429200611500641583299245337313755402251733469912075157137156427526977324494283343579749998419513573045671195823543255016960159507236924709456353228543986551146684802644568751647103632074080256.00000000
0.83500000, 0.00500000, 372990129316316167044093827668564202919699982489381820851130618207927905882395160665348548769140453849381430691729714459113657532829752416983788338071277587091268305138041053650729994630987776.00000000
0.84500000, 0.00500000, -312510049732612585989977404414604440283728511597194301660610376538556430276196054973843662305000200779497530348015597347618812663041810331907390305041657895893066134637510939165080632650891264.00000000
0.85500000, 0.00500000, 259448122901855537704845207289094660373947917504343139769150599309688051966892248051558206048474791065511372706534788837034203631229258132434377460204255339858231162102139007756059215707242496.00000000
0.86500000, 0.00500000, -224492546209993105074509002983204594215436326746766230803470961257788256738229451664299342247968002336283023611433251927303057540311782841526786261461672160477705089270407779736633431468015616.00000000
0.87500000, 0.00500000, 198520803499428542995376966514182099973206992598340083922472104678244382850792051671559480995770050620185505320794089729757442450822708393644799867516831558951684531897965441928691798083895296.00000000
0.88500000, 0.00500000, -170716884641529180785729931514093181438599384869795600097492712572024955706456035024285171017980733535878500984208644128455590662653811271698496520933146651697197573368068236367625812650754048.00000000
0.89500000, 0.00500000, 141328087976047830021696280359239970175197536487663625653624419909838961077727119653673633129981202237547163035088895389312635982716236700041837580049208192586756847109722843110908836423139328.00000000
0.90500000, 0.00500000, -113594432579439742597914834546475055026142143842890771413467455153272534587985628836193590701797072355119003610037837260295924831219211793767268337157045111257433302382048147973622618577174528.00000000
0.91500000, 0.00500000, 88885003191772357685333164642306266868526681319206095377450810766888317992134621330646775114095756124906257609714945758044209645956726236741533039393044672004979479512089567411536323189669888.00000000
0.92500000, 0.00500000, -67695917284655474990037399325695313761410872331779383112896285301276906926515958459940511153734319456345902940321593536993257024126236757417223734224330772542509074677507450877208109592346624.00000000
0.93500000, 0.00500000, 50232104645942348050324760229225086596101499174094672758833009172023487465842249674414942045587713501794260126035494670755711451764829920822318119312779728924534060787973071790982719078400000.00000000
0.94500000, 0.00500000, -36084819940680078198532726378185860202888398567444684511551541437265388348368519357407994025909726344374275675836235828771096495695784596212095897834974576299730758318144464982257396875264000.00000000
0.95500000, 0.00500000, 24992381657090039904178365698448701555128080754661126761780053007597722894855038181398906559491710396695892129906064449104243561490809883676126783978029359388176175704099034236299743315623936.00000000
0.96500000, 0.00500000, -16299461019452055575952901445243227138008058836866418650650022584672634641096385907326938003526868740607020741649798125317321500299175409844675797709732837692846162058041527032983841157414912.00000000
0.97500000, 0.00500000, 9049435178685598922547202186325653114853931026601932846840396854592304766620531306731327402888196299052241829573699925609792682641250918591305947306165408809650575115839217324845546044653568.00000000
0.98500000, 0.00500000, -2738093308828610345034161582823299971485471425190033964341726323782256119247104858131794299737021775617105123973775309909959714694430940331178080540300421256410013607062536532551663456616448.00000000
0.99500000, 0.00500000, -3338621497530624856529085054137272928998736666068039181882357752859451372205973668958611023875960586080999631327484804032117990447474970448092381693806250636551605339375946606473030706135040.00000000
0.00500000, 0.01500000, -19297520450013532031673434886457184208003929441119304787911485537871689392136936373515713837049626925749083021107402887473199228961622284182943756539044982831870283623080769453110897135321088.00000000
0.01500000, 0.01500000, 28513197324925312936343248436973486323937804992569486704618459309252441820371696702629268211478275343570961872159604674180743588881118871974324560977189008416640286582022412592835462277627904.00000000
0.02500000, 0.01500000, -37738792038695188185223549889175599654440954610550958632365009457009836563649630786900593446263613812747938001554152216268462735392326220593099154945158861902961964004786181629957485101056000.00000000
0.03500000, 0.01500000, 46462639340842184436400922863609872331905649680842604782488496939146221168395134337382796960730010193891741951315430108142554304608714614090493380500864045413447849458621409914131653773492224.00000000
0.04500000, 0.01500000, -55520992897685797560463037879194082485936919021464873617925080313218172992634009087199392940793934542374476516666802948211361613819261290325075745783520273147516603518543888555014635896438784.00000000
0.05500000, 0.01500000, 66218500074350042831846896137622477665275556698805422403341657378494702894192915812441949190124535554947613748370129491165914929232164904395075458029467066701698989704893688294981897356836864.00000000
0.06500000, 0.01500000, -78158174366637715428744139077032409528375627984461453650327567864817022048236611139228482004868038212055394942782301866725473939166354809544981939126918912351244590849798164870483012854218752.00000000
0.07500000, 0.01500000, 89770654276896716552082271746228312599118236969123663424782615299309458002878984578028124778129240722567132364824668884465326300942109330767516275394233695659018912796726845639134948840439808.00000000
0.08500000, 0.01500000, -100641228448553155715846745148862579597735321928684259410400226576218676973723951632914602798623761373933984929592448252938129736898725487123712783618492977963810132920091618760342772220166144.00000000
0.09500000, 0.01500000, 111419923779833589798843549948922862708935508475455338812785119810219044979664180812415027762995337272648182336039514131393687094059286453059246291443799064361338050349382208648565666126757888.00000000
0.10500000, 0.01500000, -122893687385339369607212517008729227486207558664914406376157217044767214278590091699125351341156517415977181128629394273906886494335859057153191866976804464024966557949147449279314438354108416.00000000
0.11500000, 0.01500000, 135952557130605510610442403424796083845222105264567783828461688826609892721285599418134358216139049079055211912645415079049672000582133428328768811501792512082967899123815738564814780428713984.00000000
0.12500000, 0.01500000, -149632538966569402641568947379251376182013877942438281844999660258108836455047188313399265786360563985734169209762886001616346099962084598178828766987468603496536215153000268612331471747678208.00000000
0.13500000, 0.01500000, 161106159879859696501141923039912756198399064400946728315916588112182938832924818750086550413942126548991835695161516218824080048321055677932237784609054948038928644247994372787522198568960000.00000000
0.14500000, 0.01500000, -170595773411096926148868134532631911532186159798966569597070843130735602593461058835021439172404118952680160609631058952882706850044262357612110085092152917805469046669672422892772213049524224.00000000
0.15500000, 0.01500000, 180311059668139078392830719364245972519349095910969907736075876274587999947563971660522466345719835822489748953098939796257651665556275411666517155689349025149940082514657062258025728919470080.00000000
0.16500000, 0.01500000, -189286174492915810593532305583745944392098884436301613733941684362015976186347089385661174470462158450619171086154774081501358794856824346382931063569307846573642677867467510455122029703069696.00000000
0.17500000, 0.01500000, 194380844062343532147115491642189998928572296726063518242946876651495379182721774754067649128766730506934184702356254792908241711101334223506994787805800315044597499919288031947845199326085120.00000000
0.18500000, 0.01500000, -194702969275849638132208251582790303440971697124060483989484545320170816042312206627754486888203036212015841668671077281564969088788196513659993912619087611212418637727708579009271746546106368.00000000
0.19500000, 0.01500000, 191149124146303545726580942988040627083324964850773050555509689951246913030005989088607028752529787636225989236567674712644203497011618735821813205463215463815264967839722376128508038320488448.00000000
0.20500000, 0.01500000, -184527272384892404811519076119340867744935274230031452358011648799769101709520989547843098429184415505822477766568993723046679486545677081344114318383158899189441872536346291833078246035947520.00000000
0.21500000, 0.01500000, 175375487762092174901886469725049087554182106355657374868931530388596805157800839346721625542306387846981420826253228580648677502729643420806599008741195307321212689817557003500982429124919296.00000000
0.22500000, 0.01500000, -163899583711270645192338569480971707095695663098424840899713348133128551455896960378729498622893272580534487072667492492656853247171204105311840884881781339089742205279863910415687386436468736.00000000
0.23500000, 0.01500000, 150728266591173574290785277047289092892564921232270830742691856003980603482735300865188244731959436662042801989030975848084870929084737002482903982543220193250397688434931047974737708004147200.00000000
0.24500000, 0.01500000, -136705353545529264465598333056423363424485255889044414742807409873790241980775195028032778886434767187897450393737071509568768061701444260402283523994432709535877775029675672770348279561977856.00000000
0.25500000, 0.01500000, 122335216926074114967636434446523196079837757018735482944936238310132403611306947236434858173390722467411848496516542260726731947648861484832780525534171856207840947996711442495849744098656256.00000000
0.26500000, 0.01500000, -107690624081472723775409334193035266508085025526121085574376283967040992533884972196389736243731281709843795549929324892947293737885162083466325906175866996825127446644545259619606042756775936.00000000
0.27500000, 0.01500000, 92540668249670644520297116074208566726204915917239804092994779404742895652432372409970768360599645913533868763417423116832927572664643782974436218538305223012227735912561686784222193917100032.00000000
0.28500000, 0.01500000, -76545778760225724849467881914174894818235139751597524638238241085457526209714267147191019773885222811754954817307495311892543572117666460128388272298025703718773964895887553417290390897164288.00000000
0.29500000, 0.01500000, 59520741054957111652824192285810730138287021974768460866554808675382432706031608497962073932962778493940708337618553039148354140860335536784429765813610114374498594260283803966349390177632256.00000000
0.30500000, 0.01500000, -41629699066741860430643611813165272309874988053276528805897512271257838709329644987001261526981097606114375961789502766595578123906341923921567370689093994036883865176987109596922058366779392.00000000
0.31500000, 0.01500000, 23342603288217352738382822259696432703200068494664532151225516005308362027105077488646776236686919765704346540097396330949756081777291157990512344634764164809286027213756676854037494800318464.00000000