TITLE = "Linear advection equation"
VARIABLES = "x", "y", "sol"
ZONE STRANDID=1, SOLUTIONTIME=2.5, I=100, J=100, DATAPACKING=POINT
0.00500000, 0.00500000, -196597057341967711291331896968423963890525915322804895789010941854663463980425574258220193647529657453111828021248.00000000
0.01500000, 0.00500000, 251829187303543660937880800269770101240216875310457279674599253769499322740965563042178975523044613727339216371712.00000000
0.02500000, 0.00500000, -304436134234526758821967674792593984052789372297174670187358892645437145070767899913222106255594849838215620198400.00000000
0.03500000, 0.00500000, 362501635118121335770570930978249012312564565459646424009836936891706561525193843019185826992054539181527681466368.00000000
0.04500000, 0.00500000, -376557814368142294446377065182557702570139701344985513077272297575269238731874346337528683743158957656177735892992.00000000
0.05500000, 0.00500000, 414828085317041079103666760324156589586086178559698575962294823353957202798934013321145649097038237264520320909312.00000000
0.06500000, 0.00500000, -437785091785443033598547282074350020738790921956365197030264844985012719724720499891341613388539257848580003594240.00000000
0.07500000, 0.00500000, 480294775947085751828912892586455710663457932628310037414560867449129753935460170067589812406059476963446075949056.00000000
0.08500000, 0.00500000, -520713882484950022586950067141131067305415674203590032479344562961939102944472227615767869325325821444572321939456.00000000
0.09500000, 0.00500000, 541835960396362036652812828015339602419269935195514783577311161075931525342212746090645574227004476762238910201856.00000000
0.10500000, 0.00500000, -553672330789306222690497869246701728918314139719336753302715284317250920527573561506321077572559062168050562236416.00000000
0.11500000, 0.00500000, 555089146358373986282684645858699830466607923458631705403495703387507480699081189130526997143050841537486937653248.00000000
0.12500000, 0.00500000, -535702389477024430414228582731811865284553720444587102072014687182243110792119099803645562154970208669762427289600.00000000
0.13500000, 0.00500000, 499758257092561151111601649090937075090798572020474941826904729336807834676739889922359007177189732616766295638016.00000000
0.14500000, 0.00500000, -462086684736387100077717263394956485614055038737020559085048572762177120127840603722685841420010685571360027049984.00000000
0.15500000, 0.00500000, 436643576023108830028590248237164767129414103853736330865623293519811865652691567920314322293868124982172075425792.00000000
0.16500000, 0.00500000, -420203752256831785605146095323882658665858615427530887368671475766946977157885952281582376393783875349949221699584.00000000
0.17500000, 0.00500000, 400788622365697393112742028391435072702735232560831080392819550801561958172991409272084022985000433401595558887424.00000000
0.18500000, 0.00500000, -368991947488036767270906039748429903750467834630993207072230983154781023769832566803713591400662039634807309205504.00000000
0.19500000, 0.00500000, 326015859806548850389761684379977230698126993544956426251616218065497836941627176371420002185923247586323086704640.00000000
0.20500000, 0.00500000, -276354563846797751795929081668169282371371927511711835893667012220172435098066074221705412308448070507437068648448.00000000
0.21500000, 0.00500000, 225642422418666041062779076831723685826154284487351135289008137348423624033088010526728251665001565182412728565760.00000000
0.22500000, 0.00500000, -183123735795861359197999577642697188594556318380049754772984712498962372865323968546023512760490075387865904185344.00000000
0.23500000, 0.00500000, 146077223003080300198319913759021868668978885652701087970222063181777141263432663650898507378256398196647428882432.00000000
0.24500000, 0.00500000, -103600639311514640163076303785656314706219085611664524253144120403333635580985456771322353612629187583727173107712.00000000
0.25500000, 0.00500000, 56474252995580287083869426241611163983070199655424313886399816923600009626353082216093451500104334953986473852928.00000000
0.26500000, 0.00500000, -10799644680091434620036774215620296483102074250826288873308476191478375766948688730856226920316220841973929476096.00000000
0.27500000, 0.00500000, -30253727124626723117158011926810261492324786991254193528524623132006852994922855982087238363867910502037315387392.00000000
0.28500000, 0.00500000, 66684713193000071504075129608913543441239197577522027310055938232529472593057908313055194678781680877818014072832.00000000
0.29500000, 0.00500000, -100686126710639842645366513515679983458764534916147078713617227451200227403569611135084604248147270929618579750912.00000000
0.30500000, 0.00500000, 130197384329121950313978193158129758200703811282031486818686779479718847734824246346386486237953854964139064033280.00000000
0.31500000, 0.00500000, -145841295339042058723240164579338531095512841419060642950333270185628740693292862062225247874464268479714790735872.00000000
0.32500000, 0.00500000, 138016915530687357281264991676914410769331527882045224159982329317038652406108498350232866544848122718588967583744.00000000
0.33500000, 0.00500000, -102410124013712521460189152961164730009388313448760513601883235616154331307853939499059174658693243608277303951360.00000000
0.34500000, 0.00500000, 31923072541364755473481942835801587431549791489498557533762178077875727537840529938667576617912407718440327970816.00000000
0.35500000, 0.00500000, 91587402088065054974129298675454916288138669974508379536431413132922244375995104926694882668331841209410628091904.00000000
0.36500000, 0.00500000, -295861800246657169245224983348835104662499729120703114325622216330663413186640494582029633709374671965659466825728.00000000
0.37500000, 0.00500000, 615791385669578985374377488421676639074728296037763918753767976653822400231282569635913499677820644205473789116416.00000000
0.38500000, 0.00500000, -1089815515768005829793183763326920577933622094879711013816108734825309932157221286328391432296517835230545499389952.00000000
0.39500000, 0.00500000, 1762961024473187863600597979767809381988679169972000510924099845250597174953495071398165632882267441458981906677760.00000000
0.40500000, 0.00500000, -2703023148545663124305998305858653741831653554635199439105566990772615323203749476896550180269638901416613237489664.00000000
0.41500000, 0.00500000, 4001382428327736116036681194879248977340627821442460531427237568443125729367925020681072876550037245111292884156416.00000000
0.42500000, 0.00500000, -5752031703465644664490976877078936981829740992838460162213092353540603426580086683158775061037622446561437438443520.00000000
0.43500000, 0.00500000, 8050222903633987658787412411824667525161624107351443428022664978818272897784468683716909702569205187538591051415552.00000000
0.44500000, 0.00500000, -11009927527912250523559365981951793120004703146473121675920784196677981387284043341057675481759396203587997708320768.00000000
0.45500000, 0.00500000, 14774334981544437576244894135315938933193750764876528601418749781734509502396669169402233831477284339513742564786176.00000000
0.46500000, 0.00500000, -19495426382502767578290733643225111540772387250882562948264826715575233315354495285953708731658278249597091220291584.00000000
0.47500000, 0.00500000, 25277845164353783064417642137210891850523830481176239054204939183022045231781282078904034643974681909793037431603200.00000000
0.48500000, 0.00500000, -32161412781491110761579803821398548864767926523130507309192646478473345701171209842293685442849451936902073364250624.00000000
0.49500000, 0.00500000, 40148377661026356335142829037186482242772434879196445399368925636381309051249325719851336678672852754507749096685568.00000000
0.50500000, 0.00500000, -49218586783602973526566638611240565471755509624345588537801114102226221188721039339818948452510634910698096769892352.00000000
0.51500000, 0.00500000, 59343195316945277305584469304363297892032684334674400488192876666967554011716000843299537000606851946224434628526080.00000000
0.52500000, 0.00500000, -70459316272861183078564548383082950466315250443847255521215980541828228412737031274848947609242954828025454510735360.00000000
0.53500000, 0.00500000, 82385107617394726983873166545310978949918867475691685171695614201339130502181300682798283278028172248225944287838208.00000000
0.54500000, 0.00500000, -94786428355957395352863070028534742231398204578732844567958324151607395135970273341408916514531433757250089385984000.00000000
0.55500000, 0.00500000, 107204875968984513095481396675768550619929274063230431291099037090074501934046013595925513833650764309593561304662016.00000000
0.56500000, 0.00500000, -119111166298870883739508360477922611983481643413616080305510935868421916408820905208315927447136789277656140308545536.00000000
0.57500000, 0.00500000, 129697122168447707002275335959058285003103805536696046424786197755121060350999688244583309159943320909617125996363776.00000000
0.58500000, 0.00500000, -138012279584920360888396587972728969926662150076360910701209374713546618524384431013443500753522333114829819881717760.00000000
0.59500000, 0.00500000, 143964210515433345700877231677254623175215865495475972694546053881215777329810136662639858089261498612282807268933632.00000000
0.60500000, 0.00500000, -147681113685794628560985772797948424599221363146630247792120574702255599946306893678357761672953252696668992499089408.00000000
0.61500000, 0.00500000, 148283438814482193133613326983396167346842434939809028475525894804055047730890911054906622112743605413247183187083264.00000000
0.62500000, 0.00500000, -145118104289582062145836918644809848484139865343576167974035289618316848841644851352387862700085252959572986735624192.00000000
0.63500000, 0.00500000, 138386764425788576816251774449447906316682149655491507299148061418714994165541347011283755775599559503653446847823872.00000000
0.64500000, 0.00500000, -128407390943124381330252487264667788397215777272230524683743940418941041700047516052888818198871612177166016043810816.00000000
0.65500000, 0.00500000, 115712556375834630888652058920805448294759357561425761038286501852628194048378532573120016444747430076293438913904640.00000000
0.66500000, 0.00500000, -101177899768278974953520481969984551697860346113604316624861023239660409489181973156884211778561973685225423558934528.00000000
0.67500000, 0.00500000, 85927458967829845507025684929451360172267895213434707992865765645565781538336989010271700995896665088755284863614976.00000000
0.68500000, 0.00500000, -71248856539021837982421537762367771602924722572245517734407576992365192307677929189280180519552316064267385855541248.00000000
0.69500000, 0.00500000, 58075038332859211381633883885322796841341352004501412455488923113095002149848078107916543068650377470061550556413952.00000000
0.70500000, 0.00500000, -46499462430067564121981799781055389021453672610942864233230374730200260940654257253114336130420593351574723879763968.00000000
0.71500000, 0.00500000, 36100926457278522704454221950863035902083873556089749697871186033359970933213484443493644853978439913045258072489984.00000000
0.72500000, 0.00500000, -26692706969795025162101711850696274291990017133787216134784311031292238258117163805676092867333556885850195612401664.00000000
0.73500000, 0.00500000, 18500950165890543600010850091276793567529494034438555720671832405022946928174288089124974482573430306819014874103808.00000000
0.74500000, 0.00500000, -11768700750016966027130987316564895225105798237615180363812795870672082694095377355725554885102979167589208416059392.00000000
0.75500000, 0.00500000, 6460810434642931113018391856546796873095885733824935949242952102648989633592947791973874815029629242997896401387520.00000000
0.76500000, 0.00500000, -2369234869202732707075667437449534085453643931164509477735544181706807773201212227368314067569928230062593352400896.00000000
0.77500000, 0.00500000, -697543629575460915444913830167969101781294298784722591188649228716561083109540620841569974002199881841648752132096.00000000
0.78500000, 0.00500000, 1379413306602072958397740256985383148887463239565846398359013935953064371205829727692596017875748268984817380491264.00000000
0.79500000, 0.00500000, -4039197732688178693862259000642732412067039760270366960828629111916753024312594675927556833775016486704886837149696.00000000
0.80500000, 0.00500000, 4753297196714382318440741168827261220938677234128179668642325309972879510604724448384579717485790354168423599046656.00000000
0.81500000, 0.00500000, -5555743076848220648295153367247701879542243351250292350247946740863430212287503490855278049146882800521571783933952.00000000
0.82500000, 0.00500000, 3918650017350815868311200431935820508857993672870454617659764927904330244613771310275730498126759040224085132967936.00000000
0.83500000, 0.00500000, -5488782542751227520198071938579165764054106921279339116194425022874456999895378155264887758101004325103314621431808.00000000
0.84500000, 0.00500000, 5596189462259801271127460143358257915014883168849128527300407450742021868523424054220800929820978097948654043136000.00000000
0.85500000, 0.00500000, -4970319812418195839347537603448299066111438272824777280197589874132154325918991236099774180440434197093361393860608.00000000
0.86500000, 0.00500000, 3976716996648737882265731267211940078303246202722484831157856561663252522204929170642647326062085382391158825549824.00000000
0.87500000, 0.00500000, -4634003261268813451711526990223520584211415975909379953217418860432201190576621776565328924721700928494279304675328.00000000
0.88500000, 0.00500000, 4068301442369706581222158483662539192836280726413523398816457457273750636926954557599463081511763720922009224347648.00000000
0.89500000, 0.00500000, -3401082712587307481321120638223708986569604061869467040567334189867064429962939262898830956114248524465237326299136.00000000
0.90500000, 0.00500000, 2666218131653929657657953434633307673980190545534039202648109418497709824012102274587784450661255139883941690867712.00000000
0.91500000, 0.00500000, -2173802682721102967437965457532394445084592773569388885304567052689091359662170146265108106410204437701325196623872.00000000
0.92500000, 0.00500000, 1834816807066062370425752571104436818487388459963051994676327171758222116651982097528799206576783259991827172818944.00000000
0.93500000, 0.00500000, -1459999993604688387389386775123451079740451357398348976590355680741162745537669670356401789999463475966381171671040.00000000
0.94500000, 0.00500000, 767650936626785753637193420018190329769245255093270952390316834160337663196946495926217165893629515494796252151808.00000000
0.95500000, 0.00500000, -677094126701068430620197818236170516411908717047093308235950476576563874482244034572355873165646981464023684349952.00000000
0.96500000, 0.00500000, 517954008736683685249209206842780147771383736787682644841764368693798007003919698890973859433089696416842731487232.00000000
0.97500000, 0.00500000, -312869640220905846585830976159392572223839569410385469272676391970432270926801326418493357084803565964368027844608.00000000
0.98500000, 0.00500000, 104521451346820841393392292980084393307495456821088578519664282137092703221387181270236373642622774186014373052416.00000000
0.99500000, 0.00500000, 72272424803172805663735307531244722908147400524408846444742069544769688850579583830545546995391523947657201451008.00000000
0.00500000, 0.01500000, 228766187351274685701100906350876466615772692874315037333912755264087197275793980739811206468399980274581835350016.00000000
0.01500000, 0.01500000, -301532851100234688475410088381100378286230987712999888513204321727784396001315420520003921412997220580560434364416.00000000
0.02500000, 0.01500000, 358823021480275649312076683221029325057864879954361403674545834515305427222042593522809507130839327872391030243328.00000000
0.03500000, 0.01500000, -398778704396629183972693791868891976815576100888468132493607695916121310996270093420549362581321104796869841649664.00000000
0.04500000, 0.01500000, 419752736007801811051099562951648463262003908617932688453853925271209661622227079109297490546315194108236502401024.00000000
0.05500000, 0.01500000, -424484941532274760394193379780385790090409508762101704548580517056800526081061660456302343681048058657145727483904.00000000
0.06500000, 0.01500000, 437897234879842569004290658474998305029833459949708716965420601198300582100890986216625689043742825180185464143872.00000000
0.07500000, 0.01500000, -462050011725930834137487255829097808873084512081353714358644247115137924290092644833990153473576502310230908993536.00000000
0.08500000, 0.01500000, 474456422319371557772184649545458769521450322963415123652374406089514247683330248447968988638515409803621968117760.00000000
0.09500000, 0.01500000, -475356607534906363470049081578656685613787346565553244120279347185016325022086841400467193656857913811855778775040.00000000
0.10500000, 0.01500000, 470911823809931262779651658551839654106842665180847741063547879102082835327715659872491332214429795004848669720576.00000000
0.11500000, 0.01500000, -452989914817821876873941844963255676026577602989840436666502863167264495656307717707817396576280452786815999410176.00000000
0.12500000, 0.01500000, 419243928749960961921083471009073759000628050206112522873434052012733900783844573308301116753356638801303485546496.00000000
0.13500000, 0.01500000, -378659577514254594687237168572943318576442713079451055037093463543391393533226307943574809893273388545621712961536.00000000
0.14500000, 0.01500000, 343695982447430046314496420459217223910739149939580471341077683183752034988532086202805938577922860530938998161408.00000000
0.15500000, 0.01500000, -319163446572564147861891218778676197532620429138349472690070250275584051237548655746836100151614070438808814354432.00000000
0.16500000, 0.01500000, 300140473766262824016482359186539774576029652865628243968166312155151412053040563611120905631380268467668828291072.00000000
0.17500000, 0.01500000, -279567809051626030073893169886290078780259524246340846797269006579781672520846832335737421753787371493802494656512.00000000
0.18500000, 0.01500000, 253621383696249008688844665920511074391017772656512311833744893439296483615468589519738089142193594864316857712640.00000000
0.19500000, 0.01500000, -222994753995863910655865220541581558508095304426150204584857733670658385294357253151985379166679545870882405613568.00000000
0.20500000, 0.01500000, 188541697207488374065819044996287825201140863234363118582833009255848803483115942397368388762812106547872074301440.00000000
0.21500000, 0.01500000, -154160182681958749392335292230728914335586313217953348416794853770470161411980323657744139624148315664564197785600.00000000
0.22500000, 0.01500000, 124320597605206378669434321586587245834309712870476972509601763803995048602239999956681251725355769606189166362624.00000000
0.23500000, 0.01500000, -94065975754710037980619243410923928312986776921982999477601436126970823436146330010779711996885367609195296194560.00000000
0.24500000, 0.01500000, 60928619552603672242178353693053302793595713991813809884081476367664019834471202756700778312781440674314726670336.00000000
0.25500000, 0.01500000, -28227169547999007292875878520257359108459125311051515796201318341831631840247199697845124520395908428320171098112.00000000
0.26500000, 0.01500000, -1971128046384550648859875564893223974432463029087152671148005150777598821585994224134857673297583857335086874624.00000000
0.27500000, 0.01500000, 28261820679518205543017958641572280243961010260709925570979908285488228953936979434633058566692707143304230207488.00000000
0.28500000, 0.01500000, -51506767199101217902679558354273954531120740370567856420939864227220740389326697802048444235407274938621795237888.00000000
0.29500000, 0.01500000, 72666400412683281180505009183820925235727935384717573085477267241094075264360559988264642161279312437918010703872.00000000
0.30500000, 0.01500000, -87485789874735677339134540162982475755705173675375976756949797254217803988124665178502914226818546648397922697216.00000000
0.31500000, 0.01500000, 87279341776264789966129698383383095653504877669753443528149589702982431312424827424457709699879923826421435203584.00000000
0.32500000, 0.01500000, -65320150924134449640930160462090700845745569145505723777383768023072657906425453577637572741408130654084372889600.00000000
0.33500000, 0.01500000, 16128370175643679094154903674174669856549475203705097684044033372240028718579986133306735722675962074641215782912.00000000
0.34500000, 0.01500000, 72571388237216272652840711212658763025764241948371299572386667580246034529989851757449030776640031280185261162496.00000000
0.35500000, 0.01500000, -222835521891300738238929740349902110299827722511085289659815420786520134598175187186724776886495001956916752547840.00000000
0.36500000, 0.01500000, 465322238414730110790761527946869088805002679833564111121693158217568529004000366202732867841579775411410979258368.00000000
0.37500000, 0.01500000, -835924743332283112160899032405342421212005201996229386093392402841610623686656149061602348825442094359275605327872.00000000
0.38500000, 0.01500000, 1370310350965558613105551599260643215240900513151054357885378187694965185163766333697155029425838727751857954881536.00000000
0.39500000, 0.01500000, -2123274236103146229077476323054326952413422664836925129104949797080480318254759473391448370389360342047033097453568.00000000
0.40500000, 0.01500000, 3191270896558185163241482043112452580184123637918675682072677145301768805225021508662783217604386855310248938307584.00000000
0.41500000, 0.01500000, -4674589146292646903629882908908535052314311801931517696391592868572240464392200451910333160480111444448494701510656.00000000
0.42500000, 0.01500000, 6649056160399689868994741603629287621986966523178652195665931045468047467486778256869970464960824856355130551828480.00000000
0.43500000, 0.01500000, -9220027669548580220119980557363349039146731107066633379216207252643098098549713005095310294117123556208195833692160.00000000
0.44500000, 0.01500000, 12542152071993499573898958371082085137138134524699876941334779588203858546029625728146118696400519603926426638614528.00000000
0.45500000, 0.01500000, -16755517198830519890384214765179624867654572320751263405655207203825286759736576900664088405811656936065020974858240.00000000
0.46500000, 0.01500000, 21942382960392306934979433726335920223993126701552173429731213653846627255011484605905644011949201015570748955164672.00000000
0.47500000, 0.01500000, -28157299852025654310148880455407363916993271629845453339189822290853500131035070111940814657863837862608341370404864.00000000
0.48500000, 0.01500000, 35477031456625199618245244724631115524234529382533141547327089384781990527840738933281510865823925287627603367165952.00000000
0.49500000, 0.01500000, -43994880128081566907031826272771386780370372050649279090690193440671190105449336125880836310243411842951014839746560.00000000
0.50500000, 0.01500000, 53769187550717577023878180104361246719113769439530345363713246710191784227771271781836533978618865578862914071166976.00000000
0.51500000, 0.01500000, -64756502288831477991399598833559916716316536774051167150440868957429148106430870696765705054344368388785594051854336.00000000
0.52500000, 0.01500000, 76755491297641790922428849926655724547998965164973314109092823122200631714582296991652746121165244808986149120901120.00000000
0.53500000, 0.01500000, -89419404127914057881367387108752028892448045877457246528363213683263688274094136101491386472634159655398747729297408.00000000
0.54500000, 0.01500000, 102324336051766786166362592057197760100854854155365568776458326030210817247233396881309636189856762402615276020432896.00000000
0.55500000, 0.01500000, -115002965792708854017533728398384032712461365939982264871305740778158088195299788751034402735631652106575257849036800.00000000
0.56500000, 0.01500000, 126969854593208829678823075072954462282964153534985182676819525943468230760812047145079505338516286543502540311363584.00000000
0.57500000, 0.01500000, -137415283046282881892205963083856760581831051680363360933190078267854530686332047670391012247553561272824961150484480.00000000
0.58500000, 0.01500000, 145246321512068156470391878290960522270640801839568017667596517517181564502817445754281321456716224180666085362630656.00000000
0.59500000, 0.01500000, -149860278264294161945041081910205680025212831025256689661695240064323623128203509371301725143534637542504280820285440.00000000
0.60500000, 0.01500000, 151263082686810143494116699663589474482459143485263960407888812504741158188765878380251347879380591220168592382230528.00000000
0.61500000, 0.01500000, -149839923971356144317930700055049832148651542073232245742270037692198533950560029711401082902814053434746178778431488.00000000
0.62500000, 0.01500000, 145615423375362789943826840064604200016026194184446157024816213908049959279801205194384463344730821933791995737669632.00000000
0.63500000, 0.01500000, -137859342170042063605469605338832134544338426823757609712170771791420054317984388612629467308005266172384450434826240.00000000
0.64500000, 0.01500000, 126494112458587897629179338011836935832416962430271895275891870277579955176503602070398860940181957394478722197749760.00000000
0.65500000, 0.01500000, -112552884706647736301314870866500402819537426960025146538816234779588474851765881988647098227244761257480492905660416.00000000
0.66500000, 0.01500000, 97259607254733316731624435255533083159139007752077120833064914169416335735043761885298723974300103579266055244087296.00000000
0.67500000, 0.01500000, -81786316514152577349362147865730606551775001954258891045946369327818142862684498164912613968982677894357558671441920.00000000
0.68500000, 0.01500000, 67223265210602147410907333390355896744909261980954228279993036637424478972130002524642900812559508417022254420852736.00000000
0.69500000, 0.01500000, -54153314033844188088835085112240880441515734034035795855882556196484127816833064927627144848050396308711645063938048.00000000
0.70500000, 0.01500000, 42515632822314065668628634772223036165614180814485859621304377830327467156808281511825244851427165688509513567567872.00000000
0.71500000, 0.01500000, -32101464341136554781123625937084807687028563183257344232521123658753720705400524369878457851410813299065328806920192.00000000
0.72500000, 0.01500000, 22971871102014007688397783872319330127417701724178482738552440250714680518852549791912751026084864187783619786309632.00000000
0.73500000, 0.01500000, -15317911062514310297624113496717275144924815143690334802059338462131085141573761347016894393644925802161179692367872.00000000
0.74500000, 0.01500000, 9162633472933933091286245857507449306551731547790963665516929077783696958266025171229641403375913413458223496691712.00000000
0.75500000, 0.01500000, -4340001677920400154745493852235873899460332795669691790186105311666832051511624994497438885692761913705470697144320.00000000
0.76500000, 0.01500000, 655383245172131797055418249965140990524557013027283385542343876498609465589595136922360447064615033151050144022528.00000000
0.77500000, 0.01500000, 2001377801118479151081218982875277592163060802114157931052924990011639623556374184445747442838200600930573768196096.00000000
0.78500000, 0.01500000, -3723472163853151015353052753812519065834940606950678232995714088052016882597767164498618378472208168895728775593984.00000000
0.79500000, 0.01500000, 4430890939761838732111306832842027138662097007830404810102341802802831818134994032760030730160278179894047180587008.00000000
0.80500000, 0.01500000, -5260685141946297021849012030566274441868640387698422235736154303566672153722777202839191478272164362381838753202176.00000000
0.81500000, 0.01500000, 6188789368899378428013382751906363306513163236555729662463555880340278645102273135069302884432415767365627951448064.00000000
0.82500000, 0.01500000, -5989397322024330824347930542164857330455007538346493456183554774909809273072185684818709968448028443427629049053184.00000000
0.83500000, 0.01500000, 6173815097578952822522750926923278729301599000530829226599215747059925246225396273921217595609114624856515732832256.00000000
0.84500000, 0.01500000, -6494479089334169680754963918135279102105789661849976332145123831723885632221076845956307209201626175316309663809536.00000000
0.85500000, 0.01500000, 5247226871891940563021067428772869665981484882385980494294940801074881218929641915674085643679293345073413702549504.00000000
0.86500000, 0.01500000, -5096078542359529861239936950955380349293183109324649845058662071591815164524283485958686369664515677391953630068736.00000000
0.87500000, 0.01500000, 4423934570493858971879118418472959265373821000880160789514780212107215963725381946842605025958706574235571664715776.00000000
0.88500000, 0.01500000, -3984568066436476546318317647044594788289922734729130405609074922933954026618274226234938112071889216597244996747264.00000000
0.89500000, 0.01500000, 3510303797927801513138417798550067088565166228389000412923171865878473817500361196549417574350182424949323355652096.00000000
0.90500000, 0.01500000, -2934245018002185502435417163545595942155257473470386845356037116628066133287967313133062518641999705596237518471168.00000000
0.91500000, 0.01500000, 2466555182367952346696392825401810430780499918145159432887397481076690802155800094564892877206839549710129755586560.00000000
0.92500000, 0.01500000, -2010391707662722176934974061556890324465836630683500521851014330337287233724354494905293638667634582668678193479680.00000000
0.93500000, 0.01500000, 1563026540316184761944982172641009002174085508581603485849984176381905726203644937467359823721888945196840175796224.00000000
0.94500000, 0.01500000, -1040230311912040162833878444503014015613711833680595172696138552089897580239989267075007321252687246312709411569664.00000000
0.95500000, 0.01500000, 772624658148626927514041570444364444255659219920513869045233219052698278716503403865935667047731471633756412968960.00000000
0.96500000, 0.01500000, -536525994865292117943490150061221072179747190403871225697339141099318386733397510038745671106777823773563910356992.00000000
0.97500000, 0.01500000, 278343324677958620008212465481451229952622877343735643158688384392875504775250231653307268494956569735921382981632.00000000
0.98500000, 0.01500000, -62620740160024985019707662483544224862709205989652303348815053219459811630881996450619834419072335702295641587712.00000000