TITLE = "Linear advection equation"
VARIABLES = "x", "y", "sol"
ZONE STRANDID=1, SOLUTIONTIME=4.35, I=100, J=100, DATAPACKING=POINT
0.00500000, 0.00500000, 63995914268946429179489240152549388460815882734631936138494910605577787210172422756290958364768759337556778213187887162730131397163211759413063721240196035496347007050943145907226214292782641132448251904.00000000
0.01500000, 0.00500000, -51298614656801157759970705188389589352335663486673047426386830740785719678538111315186231280046070190903610904377815141138081185644516637850573086600197022235834999681782057820080542331860089309551919104.00000000
0.02500000, 0.00500000, 44578400359636830024962191300237933136837563591898819524532373025794289118544460651339543867226944811165610368378603141047871598773290244299971086210151891976693091263060614028654954992335399010758033408.00000000
0.03500000, 0.00500000, -37083837734355490647860069277281251169102032728963883077621942492611460078463002939187788459459361092166672495929542541387036156165872826162266095089823370622523545753403924890877350450074532668908765184.00000000
0.04500000, 0.00500000, 30864115868181694078335606029978853494416757024097501379603009340436885869758538960236588274989346527209013265022726534584268092608825719330238421912606502698152070392931496964345415154171822708482899968.00000000
0.05500000, 0.00500000, -24158348465188456383965897124200608912185757551204123365871703291913399842892741292941457623217856763930498938736460772216219515764268684823676364710995555081316272133212222341290541755543152099571269632.00000000
0.06500000, 0.00500000, 18123981269081840132995723375631968405926120563651470367925392508319880287977235029971362762326727762502376488933017325380463942535188800554522238135962657562062179767376560468466203583241784269375275008.00000000
0.07500000, 0.00500000, -14104215975486785472602031917790906638492863829827028320356793315715044184038989028030165676346260012080859871083287877792920608168298111953297054146778148112257949655949713258351289857703785386368565248.00000000
0.08500000, 0.00500000, 10895508069260555353643223709015576165761883936779424737544757325542831450727784080947209592072811201336287814908191779203303934523696723596423811961776049342598484349555600399106566982389991875670966272.00000000
0.09500000, 0.00500000, -8663053443515532386850937027150273414990460399324846187748407669461196901939800892747367963364698313035497980218951270909650440351145509096079947872367071470465309272057061906698627611894662260389314560.00000000
0.10500000, 0.00500000, 6456937543896223048117457483293436172898968592841228196241789001391009122222849602138634341269024603064250851376312018429594460015813113168465469852680395060783282680056433540012861573472463313608638464.00000000
0.11500000, 0.00500000, -5099895263724369002693576522778575669462110215591142944249755210594198617876093265519146240131623074797687872824724859345377424965895436308383318273514582920460905837294718621334280671975661119414992896.00000000
0.12500000, 0.00500000, 4527388658861555024462836808829953136972658128500561736373875676989896630803126859590452518253895190521755995888881539927326519524889273320282345272814382810650529285830263722193976379460006347546820608.00000000
0.13500000, 0.00500000, -3854625585319754358252677781078392191984770805642402955917093335678193097100501364483945650297963415278930969560913314003226217710812877664542129868367431775894634124408785791190864642360148445043359744.00000000
0.14500000, 0.00500000, 3139843031438573797666919626208296965809570106159235750612984760219029040742640930610150093033722594471724702697520343949916604199269938530883531973688653327115949525617370122409149134851115615246090240.00000000
0.15500000, 0.00500000, -2301693217000106170044403263756803261969566674831212341825645328183175350507391494909190197952253817720426254408763601039233440876363972215741698099290621287363361693709886152721150533138121047328948224.00000000
0.16500000, 0.00500000, 1354538650486852688871011065186957642101407132951772214303220460584941034311138060775065363491137549785505590233212764274217174922440401717404625503766666898635777882074310783621759985107440098317697024.00000000
0.17500000, 0.00500000, -334736465785774231078830440041932992312962779548862285929032619870299911780814885828870582297270049171041756479073494019958051661304068991357494185477926619441334435335972679912837492185008222433705984.00000000
0.18500000, 0.00500000, -679727630483773259653040969259149479610562448507278670406842915064070304389057133265774505057339865305767829924105023961491921888873190586256423116968484189149629450570903425595099059865710913562607616.00000000
0.19500000, 0.00500000, 1708383028991220586440108904278599077770220761675384893241348640827029258038744950431655046253505966635049945565335888201465288036789736059132528329600472514036116506638505928655828273229912289109344256.00000000
0.20500000, 0.00500000, -2836579683279645920925440177032085232377995151579696572620964788380845593343947834537998971654201396836793615800532444953827929979518674219612102771491682109960291507288632069968602499266147586578317312.00000000
0.21500000, 0.00500000, 4187138877737688747914430618015466486369201421732574249039026822168405081446819639227608801037897422454297539416166101017867110900190651239885075197764718841201520155095263530103771897006663947369054208.00000000
0.22500000, 0.00500000, -5749579873143078625915928889319308598934432725899998170034127901680708699578836126360175069041934731360624791759228348680648977133208466663777041362423324622721631576496701232135782539659317187390210048.00000000
0.23500000, 0.00500000, 7406902595015029120182055004916616615410017748187875036314262289854693815718868687703854652076231194907313522533743387441350400391098137648542073249309817202492722256761173322746192266816979826582224896.00000000
0.24500000, 0.00500000, -9115743548792673911450384255143267357984550368547064879674903348084679513040515902128395939767459889560457483075509022000711955534229111872213321038206245768605068285734604134128919877869604143391309824.00000000
0.25500000, 0.00500000, 10798235308385282056878586035582500821403386858394251935557119163114849744286124780698030922095955562354492649125251678154795991196049040580363793569424833845880227101707774131531994134226552106606657536.00000000
0.26500000, 0.00500000, -12304529893429014919622595314859631908065445523289910386280220752725738603441761591924564567599937322102688158735122268040373430963529797830729966894844508035034070228196335399337401315017407257743720448.00000000
0.27500000, 0.00500000, 13545435985749341538272423940479667156808408660491049527980663326402479914800854689132349009590105735201447048166552512769844969810011948438265607456296460999786263179189599640265135832613465203415187456.00000000
0.28500000, 0.00500000, -14542902443342179037611668424142005052526855861880098390555763389748235045867126236616836812320827590384080164218534726319687692577732013615626110264935966828672887083546250487777922844481905152481034240.00000000
0.29500000, 0.00500000, 15373169232901165945662562746872591217564603703867518015653694633846155379204533858276439618316635608163424441373841110019399997607919667516108579108759076432846441603828987918840098468520821090787786752.00000000
0.30500000, 0.00500000, -16052336550098426786272218325526334257643944825714333202096687705608170024412117383129049013682894772159450620179518192499454797949712330410921318059470077987794503889723606651553271233066234587866202112.00000000
0.31500000, 0.00500000, 16485696217272956651603787523331464708996287591937681141145016750108386129593667630884401758340280382923572198287317955922142206978045074515750429779122844790862746017586088921352699247776823710805131264.00000000
0.32500000, 0.00500000, -16551287527153639936926001239247703238099746112058352624251345264082037264706782566916847081619756260135471416859621091872838200793530208135646694344701269028633454798373801651226979628183152835822616576.00000000
0.33500000, 0.00500000, 16241186057704908168649690906002454391389267554831388953229499665398130398868275560962860331714964577595849270720767147884234868707295219539458991969312537663231743291851036042775172787973084847458484224.00000000
0.34500000, 0.00500000, -15680872352594210163431316123250579745517536849661808516137187692179832800737589298740769800557892776031058894886436767790348878945619269402536787541209632515541967380341918566064915534114860900678631424.00000000
0.35500000, 0.00500000, 15005519217076793124135347105121609095218790793765765792429473383945385469010256253647084910705780043224635825997786249707642091305863025691273687260376144916599495310005293867747819969250595314675482624.00000000
0.36500000, 0.00500000, -14278043851307251834688915110797192179390212883429939758643326739426755023776569491991160056908162603744688583941047395856990299611167869162557796996572517588131743713764883012568834879361218750309203968.00000000
0.37500000, 0.00500000, 13506907942969317636759707306382266805913605656194668478113543306582356531222024594535938558068593629978383007185604495259608237463461125955970228381122268247506756399381001781235431027542968789362540544.00000000
0.38500000, 0.00500000, -12668154636170073916036311728911973037073037003777537601082903147623419993824726687581132400492185975266091959528025168289986072107447455076056754459462640583967317735505263992643292768393678659824648192.00000000
0.39500000, 0.00500000, 11708346938797979002293156535154676989614228994499453229018444532688362495747280920184395896784653884455477125315039898781684005329706520377832352251734647762784803729950458172925734100587298299941224448.00000000
0.40500000, 0.00500000, -10565990179716358188624854372454700500909072532704727244717261651049262128614258521795220826412795199069486806522756297099442141534299125292470283854377267238655012770501828820758337417133934635691016192.00000000
0.41500000, 0.00500000, 9214435468916768969221067392069661258499462181828979324990223375741744046661286931665559185208308237567202699988569482766250331142848854200311099724590895599563620007479480530683911642843334077709287424.00000000
0.42500000, 0.00500000, -7673521653076952820868438272776489104025684102384787006667333339001062743734158375684448951447263124137495186830041524029801587943516316323507012881188267934704396446951656341601208790150746937797640192.00000000
0.43500000, 0.00500000, 5979543385603988467242912313359607032603976638679508717584815920795953557084410712960746254912523403831787977870148555562967249403466339949819734659862179606720643157106691458380431234886681594603503616.00000000
0.44500000, 0.00500000, -4174930158693011131834302720956204382227871796160100479257121926149384138691857767564779303969726119545535697110383420793700461161870359685826338828516963129516060394582598630169792100505854900780924928.00000000
0.45500000, 0.00500000, 2314092904718930699750824819344532735246018545613281658952350427080997701997612197009381657377996392549187149743079897056968125656092921277300005290804560533345119176865764354420932265224644739440050176.00000000
0.46500000, 0.00500000, -442795129465968754145687170248577806093052164512967284638061616388854787879928920709240533041009632204764007721884041252146693681433952848699380059233890125451229350889029926943831658028666087467384832.00000000
0.47500000, 0.00500000, -1421111896788173858439921573763917029152658607419174735792363085005940332360746709602610218249145694885198570448800324451112409306572589086393867805293128651541910526583420697676504827625640585250996224.00000000
0.48500000, 0.00500000, 3275590909818271208069288418492456743871376139509876252815855233604709293397350110199411414475607475595964451570167737243221885947908909693466772541692654785748720752529769935921694839006014453435072512.00000000
0.49500000, 0.00500000, -5113020683570249457626952350235879580053543359416033100370148692411959807893545528736129403729369271971766694897440924997746224191117623344263458045904634931883875724289214561952572486836353209829687296.00000000
0.50500000, 0.00500000, 6914959153751307566010280283862779230172663864551256724812641418101449559666287336703505462203291002422142102512040032372540103018987456629878061339927207673703978260704579194753160357675950196370964480.00000000
0.51500000, 0.00500000, -8667486575479298469209480350733336677689949466855663636020773492751383079679367259147722355675103245507276969302939511679876246016749844467650542774390712665976685536572327888767995109243000486054854656.00000000
0.52500000, 0.00500000, 10379004345004686910573593532123805685004268001979049140676209642120077239543661615060181315546809261813065937053720899633329014990211644897037070797058544567325690326040709108815790999840092201886416896.00000000
0.53500000, 0.00500000, -12072839065561343327519174636755504273034121000065538507542086730462172946332994377709163973769775621129541725708368391988047495044108495714218537331027412213435024821116328793191229782264718723379101696.00000000
0.54500000, 0.00500000, 13758970075493017020547909398284134823608559857207033656521606755763425325679301439457862366586842500347560864241111810116894982729361762860137406194331081803354842024030875831094779395804276698208272384.00000000
0.55500000, 0.00500000, -15420978389746266023858757348590424643735185047202760877313987776550737776377283352657846204664041371830951287339147717197741854971012044352396895020898106672767519716603312806474073277118732020932935680.00000000
0.56500000, 0.00500000, 17040355082410350682592968799629414145845071161535498234269816376093185376815193525945904510981866768187271733626363097399000396569675868687931617679238298425179305481907815936679369552926396490421633024.00000000
0.57500000, 0.00500000, -18624199413198192116394421893480325041857488602985176894558685705649947648568904288278626196058154475089160107071757763678527628533612357732633615278924577240286997415596305080830537946067272281949732864.00000000
0.58500000, 0.00500000, 20178321713700313418528098626817952371754200878256918082303997508702582426282176345890731825445578429676042107947824757124131531874913868004261973763967367133722079782947368841518454155465771048033583104.00000000
0.59500000, 0.00500000, -21664743022294357233322849345517505322403891898406061471566724722623352226090853062197106408966492238092132066446051107583013654309066706541494304030193428739808208699175588109487556674782030620463726592.00000000
0.60500000, 0.00500000, 23045247057254031788246536959915493124596784097251208513076020651739358346331249417945391634864350793441584085192230682970025862909340321718624072372234092178812717325238420064769162217109188138651090944.00000000
0.61500000, 0.00500000, -24186830828664543949110969434939772472644177009227253013816241610675868937526238720327191301645889422084450321992687632636516622505626506413958207697968035044855619532900473770523665535347359001490751488.00000000
0.62500000, 0.00500000, 25038150852220974258440513108771314319370190686479129875280813405112667968981297293511641202111715314048067184163788079479806191178097459816516355183215785804719173149736484979396726330075668749312065536.00000000
0.63500000, 0.00500000, -26278035361558083048253500858675681663824833366578635321876917086939460600700231645098042974558247339501863324533468951630978784352591975447136177892262859053642530586665739005525883649407097175061561344.00000000
0.64500000, 0.00500000, 28573410854752928546827333866880492784623668594008898903054289721475489759269046081613120584911654053627415985830927661979151444107543267998499064608648216565903487131178082127842215321704394522263289856.00000000
0.65500000, 0.00500000, -31542569883034657126538116770683039861112668059158501272509936226980763879154536815734027576646644181937487207167647658031442130797875066108856165758878407761478605640282894873055584283279706626342256640.00000000
0.66500000, 0.00500000, 34863879065171467429220775559776500038048995650213659114388182750833533160945011802403122887477636693025627392247306588631689714966139022324852441278938437228559946642440893195323501695434422953025994752.00000000
0.67500000, 0.00500000, -38988810212515429199835159331979993444322584862570667250395178083678976848173336968045914682965871230657239275357896630909350194153232164220646824542352006967740747625210587070164461358243148933487394816.00000000
0.68500000, 0.00500000, 44405661202919883767854220687668745485154967917327018829862586722920168998992713998336709786274294184488527745917095654281169932878388909384328442771075353609818226073439573924423812305795773558287237120.00000000
0.69500000, 0.00500000, -51388253605104022090328283738302669009823038540561796792232949994032968645868986771309391491693554926889349361058735704820857571864136129987156493139832453899493165013987811448653585824174570436326064128.00000000
0.70500000, 0.00500000, 60078014241870194816884074874631963001228840277121279173195800232034623586405670939740236315649990904591679930308245049877546758995060628087199150703644216953688251056547486952696985168879968999704625152.00000000
0.71500000, 0.00500000, -70488145673980961479128270743802134723101305086347404305751967745440968305358350207528548954754792779972446775166988933607204984903869127315846618722611802638781193060260145073633075320260192207026257920.00000000
0.72500000, 0.00500000, 82506139560218470293787851163053493350548049219276024873393009263986075960733116583348831971858321932176192802992449310172231549592974540865541462454663452882370968149391900525061848261579945923917643776.00000000
0.73500000, 0.00500000, -95684151494941070618607776587233257746848568465766924994007629080882164751792465742016814664678555792995414701510240669886010552870922056413697757021511666119569423408253366997499963458081876319716507648.00000000
0.74500000, 0.00500000, 109075114013807807206443216507474969431932356658910335078612334277221631591721515093457028000755313293377461163290935257785433084617386860911189194491190657860080892292996670738176921630746524230686343168.00000000
0.75500000, 0.00500000, -121655718478533340665242010486787533164701713345476279246505878371919850107394846692017530307633606357593188915749186776656764691386854249662829185929064934654926666058107703005381574350290525929158475776.00000000
0.76500000, 0.00500000, 133185900068695265537721349985207182159339436940332852942632639900169449701299978147659093691713926477942781293236068113361437975582964221659708809193208334105855958789626757305290767327265958097990975488.00000000
0.77500000, 0.00500000, -137717452669052768972996952657049891818055505061824846120152079734318255381889855570718284544309806574606607036252570548254622419640526582701872031167087780677292843645506412821587113362290244504638193664.00000000
0.78500000, 0.00500000, 143198243701447685419179545736196606035481349909254498861588068320023062047903483648145604404310631565955126862611463242814944924793928785215373660257239589104762334282861237449338033721020371558748651520.00000000
0.79500000, 0.00500000, -163599460995200411406213524873073958681042561488878978785163485996807937458159896275930153310288767852049869221751675588068582646835268366708752873836642497601759532231066386551766206788877215047023067136.00000000
0.80500000, 0.00500000, 184641319516611212430271213493449049919635137899810916187927831473843278639014982642868240446170953541424682918864246981605256653235044630965623092022959463877716655816881730265829963279257539077147197440.00000000
0.81500000, 0.00500000, -198287711589856060937995282166797826680826536629170935650329355731975950196831172894827954262446782705625176992963397585949923141305260083142848933485530666398322389996393064432316219647763971371945689088.00000000
0.82500000, 0.00500000, 210159230187240768924800133039451975047996853165897342503224467605919668374322936252782439269453068034427464721882567608829005661009341086259427270767484230297430226567232976555783902964415208442260619264.00000000
0.83500000, 0.00500000, -210542470854841496154371944188699115731498213218001296715166751710662502766622285494504802714612017846587179864182112548357325133494167352823479756513789507778087516760947283765050248099338525307001896960.00000000
0.84500000, 0.00500000, 199164977658347562115956382341642780128458670943373698683095305580299169419236871409876149810676330930875121621627441945578015201429581842573015327189620881088761617736596844172034702475916266477327482880.00000000
0.85500000, 0.00500000, -201458837825448240445344400088686999634826131486504160851368813741252737579854787795390735953454547163904560264262201902982032268950050195798653810433454321487329763261991528345727854176833847445241724928.00000000
0.86500000, 0.00500000, 218210903393717242465888119436568160233526701522180433438248188010814457726785663811536155317834160952110874450232138660431186143791588908696014780718145570687572808678122855604455550191530433329563172864.00000000
0.87500000, 0.00500000, -227751326748688257067425735572513778279508027072871638499021309410855798439517467803279832125950217446465931879176824426097629246271234504473636205380508688822035416179578615674246797572814986986425155584.00000000
0.88500000, 0.00500000, 228676886611232155678081787871330455892533148195491899603466955576276082428921385927866667513147547755316494576103690850599141040472031320133676732323750906427378176629839762973327450954596773482052190208.00000000
0.89500000, 0.00500000, -223277286837839945425131576751396417856765843203246052087523752029328863177763088386672657309253352745233897163485423019916702021387458631152808790285165679656734758352498367980885803227115641263452323840.00000000
0.90500000, 0.00500000, 211854958355631004669982071935306951074390430494457558167124978401578652293561834490482844587632390855657598775513905568596216432365430508360319276209410094634328252854032225276128828707313008831839076352.00000000
0.91500000, 0.00500000, -198376524063286728844451462994597819195101882408765910306850211526505078868870779473643212809477640753925523482729843975078305930835379389270204960105162792586513740634303461701560657203809360229573853184.00000000
0.92500000, 0.00500000, 184381492259952157713423342812897200511360151753969736986031612098875237867589995324032534477372712500744987732626972226203496074688596323349462882790825886731843911969174899889716684837114259410893406208.00000000
0.93500000, 0.00500000, -169696222713400951700024231366651669012209571878510955079520198275936588029106446378999654743690602115223525980884702410521688146596615308866506964030499261832214851000311050649087214324423494116269096960.00000000
0.94500000, 0.00500000, 133996565354318412641073522808200585622827181360039682249471589399215213387179668430156249391146774396967480946849597653421344284156310822418314778746704277233506677883024663918080943073138352579806232576.00000000
0.95500000, 0.00500000, -125737692166625569403602850331784559404431288011754485386324148903308531904697989012451783272390973502649750658106287817657530857763350163135333873713539482650532486900183206087571339225860366154910924800.00000000
0.96500000, 0.00500000, 111126250888003890061643389821048213851834194419194108732251651357715037670303133793627409270661210684511215021327747079826437574870783846053822919090989520952217103382113537831209911387248309750074441728.00000000
0.97500000, 0.00500000, -98636223766797840541736770188908464560340223538624642682311779443632753098580460967554561965053168284953791313859441473977309680331096446333561856478498396641104985495884795339688913024091965096791638016.00000000
0.98500000, 0.00500000, 90582049774688610117358593947764937180088684936034605072657553705607238176426703414757451664493903915029745141818949207725274797673396114049461526681841039545830026623631635125084479974330905603791126528.00000000
0.99500000, 0.00500000, -83385354107887103088761836781279258241628194549034278668504407198716458152403458163610192994702294749267401879196384035255061381021852373964418112291745413862317023558889621620195199154818108404877230080.00000000
0.00500000, 0.01500000, -70633055550908066337779010214297918422666856398835398871600841659094559985645354439392414792335534873169976854777636612506440937785194177669234127596057758243250568019841795457735421804655262634799529984.00000000
0.01500000, 0.01500000, 55830162822023257928907820304681506885225542162481584098860820145036059905986541960790288144546195363426178682930334976547235837759388853196650954601032330055793230260443021120381403678316801987251798016.00000000
0.02500000, 0.01500000, -44868680617917589503895830868175476880764512445835661445227068071686602033057339611797464202337379270436063423031164032524408669124138208539492081655255433615611407785298961057512571536476694512027041792.00000000
0.03500000, 0.01500000, 37593959348168686105088412336437255530220740432665394377829699722221825428749929983449900320785280381444582295620619727063765171518921725235425642032611200080571775723725595272516540635777579959348887552.00000000
0.04500000, 0.01500000, -30362763547566813016464173090862985756503984547525279515934748110070636704009834745974871013865997961154365733879513115782471623419850421332302528919854625382289419933629454107356387283651253441856012288.00000000
0.05500000, 0.01500000, 23174576497028831030565270373111054383456751459624969819112723908299719121599074662399537566049281110497739691511189843374965026899491451080636861700788393035695006883711915510325956842252701804286443520.00000000
0.06500000, 0.01500000, -17691328571367797232126264267374943746398439401937576322530951152489850583782824861567544923372620174599298315467009324295053810668363688170580615532526477278936025165601189815349253881193418498896822272.00000000
0.07500000, 0.01500000, 13572869688217849813474000109794679916313062167617269760802762240507834229368567192130557092970968724038872609655768582991877541080556272799354025176773823448278546449091207139826895098048382503397359616.00000000
0.08500000, 0.01500000, -10300655892660124533034049701175087617550408276197963737819647008036427071461274992767627726697399916466927442865719402694372458505667226858676935503311462427060464628645195122434565451137974456465489920.00000000
0.09500000, 0.01500000, 7920458718157627802532894813208859923764878869024174927835225247497463094953940549178100394482843939184423169563028597201291314908900095560945879225805351206947559550903221472757730757645844527806676992.00000000
0.10500000, 0.01500000, -5885042096341314655643435585309622264668384000745604383985234519107101525648355393804989215223146517902850546013232086709753433334643166093915862228628315808430906609822443481674080269397643641518817280.00000000
0.11500000, 0.01500000, 4580764042951776544346778631507412835419177753248054667780671876377215656277752086224858036680211922501635220646528760244089788401728835025624676064926196081780439685570814473024184808211059522236579840.00000000
0.12500000, 0.01500000, -3670861401333070769676930183112539840418208734806250702154618157469765917643944184428877779379490592178952333972179457419957076895603192887787453234796735649300637073262021880508337023173743683506798592.00000000
0.13500000, 0.01500000, 2694842991200534833352431477826851037417354241928409198263992714152830955022145429144059464506214325349911355749311315753897765349295585624438079188096369596175748674375493909522120974476762567474675712.00000000
0.14500000, 0.01500000, -1726735958719730090907355709007232701622992979463492056686169923341537793984295813361304786956173360355523060021272119537681572350322966035649461775994499078575817561556882474846391020057912753961041920.00000000
0.15500000, 0.01500000, 674063777955013874697489812533819947100578410343230652402520973452898691857433633787370779684738617130025151129586174821929413862780054289447192850746723667848141523789304252077900687380856136173355008.00000000
0.16500000, 0.01500000, 478113353031531500045657794353878252192789626328797282214631562528539903074575477073783125493055658302522872798502257410067662982007275084226633940591203780223159030495342672799404413801202808608784384.00000000
0.17500000, 0.01500000, -1634751629115747487526176519955397076428394993389689890572029579610107662600895865908082376008574568156284772813522944588665027129635118024147394201280160789239045958075832224576353855895249377149583360.00000000
0.18500000, 0.01500000, 2793092186023739604782404113661974729504743236164849971409559249032636500337584236817255833405211214933059379961508129606765764476833946173855118260844867674037241429724387432056310480214049698556674048.00000000
0.19500000, 0.01500000, -4080776654139249921590995901669595846789638104272542705501888584519183475826291253545202304607480479253013216355406556920230588224132077607651706366840033850921041242883555054311908283282075404782796800.00000000
0.20500000, 0.01500000, 5575350079947212962920993566914156442261071914800792079839638796169697829254541125052537646640355037517623608860285755624878542220361847420660085269829856618063882113718337111809885885373891192794644480.00000000
0.21500000, 0.01500000, -7281278391412532617616616881869862905392709262367763165496567431397891721000838558746250710272193958747404084926110470199136204538339956141335154120807760035356283451361834096999211140201204671576014848.00000000
0.22500000, 0.01500000, 9127397570508272055298897302216281586773052386599608042640990019410285752186903774940228914347915633735211965107267503515761681927335838595324546896193088964433483816656489698712279276795149342914641920.00000000
0.23500000, 0.01500000, -11072649388143350637432176891748960919301505629483079361273438350568292942902802725837679596957056206178646105959171056971412147641880421990290299198261077041108438226284865218439378019977030881264009216.00000000
0.24500000, 0.01500000, 13073051880630617825278711434459327596055218419673670903283490060578309956390533823146611716418019002966884327981089600154320619317494021135524492434207123214618937946516321708426875946615267386959331328.00000000