TITLE = "Linear advection equation"
VARIABLES = "x", "y", "sol"
ZONE STRANDID=1, SOLUTIONTIME=5.7, I=100, J=100, DATAPACKING=POINT
0.00500000, 0.00500000, 188522397215708106537514416458615170781676120153323456713040105586854205690066008183048201533911053254885882701249503272164674566047417455004631923694136041554137915791270043849756985773526858855047989950910761164971500011113973935361270283157135187450338258632835072.00000000
0.01500000, 0.00500000, -109516499802676261444761642843420078314353563333210845827745061024145053499337782213988832158324992360499892251472471247388896130807944200613498648231418931839310635960754327077037440472367352777468170713916044061366485958406834719712089856446175727890233565078618112.00000000
0.02500000, 0.00500000, 43343631332932561834931390869164013255784341614564285553910716602306446565757229809877977212528228493987440137341567155086612939679616607393882355888536170754104327523880871250060040315077193025706506096381445790611481675077647221371702396640297880620073355355095040.00000000
0.03500000, 0.00500000, 15088189666085714478251422237115753119023564977561528455860351873874564633047865496481729544473587282438105248930165939346712028417701861520590390943305809892771145481287944237029845344669394481756631134192572226423404018578091229918383099913279884957804171276320768.00000000
0.04500000, 0.00500000, -76898731826073067016602026062966548136634793298028915929590072458461185987530629691348511908309335347298104116021759291666478970248242392769858417321027466750244951881544370287339874970770566582685228381993918062828165622383540815978777216974667610747988696029462528.00000000
0.05500000, 0.00500000, 133415503071712041853480053745732880377790189154826235208852757348497621667001662963309347565460463295136488981015706775319206489093096407171793946410546504619042980148634178874717509430154014592828261160609397595357557259999985123100610044281001105417449347951362048.00000000
0.06500000, 0.00500000, -186485173469307974594782448341832076892615242513959934666835986494173294085111838973586902360108692228369619365761300596178298765034814140488957895505481843888298040312763581722747546046288670169589624664449947095239244907775947030194605666988482201367007404601901056.00000000
0.07500000, 0.00500000, 240484044263113557901469339187251121099586333773359899233768852159738553855300145122830200216160901803564483831534454401338114048724760330845490450669272920711871761559845181594534949454172775649538946609752477970049786540893374819385039579454279923542455640192450560.00000000
0.08500000, 0.00500000, -290655101263758133471660988638096832643902837193316334802525012852727168126441594091237268412039135699914518700783271814933956938396016074704245326128840838573862982880659859957610643579962722936719431285499667789143961052042490925394846011108644353198270880619167744.00000000
0.09500000, 0.00500000, 338374028952992719516561823121721123388286443380889926493064295929268674660176650651516847430367627932633700583884366129295857524815286906782216820530523165611198631872156414413212548676604767036738543812322037129224301335210807271249678079453934066792233224665825280.00000000
0.10500000, 0.00500000, -382766659744270385251655561512308954118492635397525910765108609539354119637719460383669576234400063235236044591040203710094929204188721656099175059799754222066176668365570250107355811758983571600450622037221699588288965356608888455375505860100258223310306895919579136.00000000
0.11500000, 0.00500000, 421443598035814800052660811217963111713033191514252057771701611805428222938110859891378146367324225059331332553447643154453678505601476537930802618002273942134990626149937619362701937717421825178013352710146494886713374973952943606338202612758743636235119305215180800.00000000
0.12500000, 0.00500000, -446772083609910839930670734529864959574053542327958334639653497002626911653026783908704640925557200049021724970704521548652073674943705224075162479954686110376275958816460587088872351193891997630064581670588096048159374775261958756887105349335450737376131939404087296.00000000
0.13500000, 0.00500000, 458639759384922683372252492570252095741713176735822868504146110793332893775327670224045545918558892111914930996616583229818163803536986309325824697208887609425687809027142858305310652752859297309645172744563733295352737161226812833426159898899751240374176756390690816.00000000
0.14500000, 0.00500000, -472158996305965007116970693848896112143858617625556993915298881809251899388909621264214202753855642399179751927366273749594091098362229893617339705036687681984508058187822296475549736619437073643857905411630825484630485586090806239273791885950248042608952487534657536.00000000
0.15500000, 0.00500000, 492492453385623391747258581845191159025742366037366833344557756911204684085753410945238655875484274043344675622988640949837120716839807804962790537654836066435873154363649319854918062226188005500793380476960605968576295565887264004106738056435088099479347169100562432.00000000
0.16500000, 0.00500000, -514065500501286832064109346953329383740086873749503437449341164108703219135412591951540936380410338566354554493745382175031229794600457631141836400146040855375402296594219573956384509276660636926526288795834882094550895187266223749522021780972385383415695553729658880.00000000
0.17500000, 0.00500000, 531852477315902228556382821326477372419814550401429257801359370664185748194779378420906578318284317265358537695921087962022201969994365214730626389529110853615244495622369815325156945230430414358642134130938071041707141109402420413950967696069943962210892510763417600.00000000
0.18500000, 0.00500000, -549652313798145218243718063930693458431656345616475264707093920046004655055842393849628625256803861531728647916540699255328683716394274696368497543769392483106402095280431154460835065476294742805009740139782263629798694673674184684021279836100071453737703727878373376.00000000
0.19500000, 0.00500000, 574651960976802816880795613041302651958735012457779260460525230539287783261638768818008173298385435654480275613786883658956077808333242572779615394527614872999115420701190165890070881103074374941568126986147789401097573465494548304101725241619898843078876820609695744.00000000
0.20500000, 0.00500000, -605360789483962580570026098991296194859490934842354047216235029206799637195474410126262187933985932115737728599574827775080601744083112977151634309196339493214512363860183905991742036163000374452583296277191322111010327225408129552728161345912303318316493593569656832.00000000
0.21500000, 0.00500000, 626263952979128604794722617016500145420385387661395415788967897014161583537480132351129157160115299190111290112587310699585367255188308202825790639497240847885280200507867119084887036784707261145935963964257870994787600610859865290432630358968084327824020096350683136.00000000
0.22500000, 0.00500000, -628296584594006212004273763890892283605531250847183672606355148131331890294409122615816817568125753827115206231063234012818112042798661189517621276626433130140856652142079428813458878811998053698835068695953978896838748574582266347299042768350731909561608194112880640.00000000
0.23500000, 0.00500000, 629894608907192041044610842653792338590658108419632344535484699298134722902567273539147468660251847569371330625773193669284584175819841815041976881490703569484484692857328074331131838691436366471774401773454374100573188845896537906134291432798192350777175311720120320.00000000
0.24500000, 0.00500000, -624174132513216020293018499984054061025970233754634085669714345809978191218118390966755250289776544367956935499315046889339169798254513423828933579203472972020448126505288326384035193389538234376722579189780988949857284253681720536851019580263948612322402684922494976.00000000
0.25500000, 0.00500000, 587327827378024141273367571393568756307150655835282975365242638691599111193035537081326622823292950272558463843858380138898414593023385824573900866062014900614019557832911843856667240731601682184508392485674684510062053337163492468223025947440375082183793307499364352.00000000
0.26500000, 0.00500000, -534552831854565875742829298036514559469643218385207106642008112890419865882344415647587173517258346874987113699230538572735815379631517025767846920505168125983069054752812679157832656808133735394084811262698315948788754752588837452371569731780468087199727798418669568.00000000
0.27500000, 0.00500000, 478610234383818632630933143123234659604876190846431840528963949572744803674909968674829222095428789127446495745654034421500186624717542795212004669269115879406828481129745426003421345657225794713470266089968514767592585794073056139239902503502685472417573924537106432.00000000
0.28500000, 0.00500000, -404700773317558905100276129390538097465360613508059793601602162497517533656633166090200695059113454337656168432138216241424544570863441413040016789926127864120872932949436243472659655637880580392798971753599993568777081193524054698099747782843932348723886386726305792.00000000
0.29500000, 0.00500000, 305011114267208428305062046861184774486498249843920509564158150400962533011101281572721103216680888867158059993575451708472306384908707909497191481477146673895504784760258780496238419798670798126622424565720342532280664794870002710248087692521820488818933647601041408.00000000
0.30500000, 0.00500000, -182595057932017780062033575210104816157270363649507852224950760633040130129389504365104903264387852579342182103158821640254354854749765670133507876655139946005184574363915880469801936510180307033906798718308585978080398940167339314298201728493350872107555345859084288.00000000
0.31500000, 0.00500000, 40586911847731872835366982461844435837596722651482658420530203605516538577806136742867522086216217376646230023769251936306263581496673244941461232534826477911751516715886495942606169940781618125830507900568255158753217470692767594203155019394264834535121354206740480.00000000
0.32500000, 0.00500000, 117099683712228476033825860713187387127822648232774175354159711421587983274628484606994502662743146917482812570173918896502929212393382056024326229509463249857578402370773655564613854529657124045520572960587316649765959161957581919720132233217543282123772783165964288.00000000
0.33500000, 0.00500000, -286317740786469703954111077121553309840048719528370278006798753346709238567887205563233653168744078693264473894379372893257828183495810526704079108006280984486424338404895532298565356647109810514519273907674220911525530811352489122816428046033074943865522159989293056.00000000
0.34500000, 0.00500000, 458855949192382176919923645142076160699483520355683083972414275561498386183413847050142920994022217044494260912292904239341475458422275365709513974697486576422255873368152945462869469983372903429120267264302361033814852659457753806089083659390460230596555368136966144.00000000
0.35500000, 0.00500000, -627699033218522692994066319315060093811537149407190319557555466182057553775365566480205010312517520605957502317154559258063904270925389470763446775632141203339687136643196322874432610105417851232386318791995605420711807505294668018689765693082819994739304334148763648.00000000
0.36500000, 0.00500000, 802792511482965904006185056193725606060585768295149683222391907242471465785916733095598073043867654022599588287303303350857613565418021829233465278282866310925512422522012370040653352655363617062285086166622888142544997286680930643161168133992510972779369054150328320.00000000
0.37500000, 0.00500000, -1008639387972059196606005584177606230048774219656290950785596296411444828243583721768128100181484316330381661377958910167897939550629182322440399366302732062843718617863693709122694153321121430434282524092423718287412976079222471870265498647995888072062312257775730688.00000000
0.38500000, 0.00500000, 1230361440204889456795978769936675429505273370895826376650588294541424834711460682067686983559559071786015217701791166170457210467258272780863112226909704950777823293928639748887129127570137230178325388788925603006166956464376176022251163001143277873250850217901686784.00000000
0.39500000, 0.00500000, -1407493207814974556474925128836317223814814268041218814326283922926083839835991833352270235394218443179175954565271405606720435575529889353431012709286209248220684745946159268773318618536359136655072856355800531757424490658740245359641911791384727490769673533851172864.00000000
0.40500000, 0.00500000, 1542574612217404536401104513351606565761351838646674421509109044037000496108895039413742037303720949054016497344830326525606583047115958747548580888148679198290198162625743363834505652007922383796932725899182401989305368295035403913607115431523304578549675431146029056.00000000
0.41500000, 0.00500000, -1699406262802705102982203774800213926235213101872707048051546594058568097686128769530337244929546137234524968929458677660351217608142680282510264388275209130843407412626962537554039328764973120004856672527993972715409053589059251576322093058751453689467314717312679936.00000000
0.42500000, 0.00500000, 1870257587137121236068346212770203402914357558965158856822865667521291985302630561811109101155164974867168945369968231027396803430873605168662635040274041115131210029817095349810659369734431103823055457506172592909900843829902763415968468631904230231689603112574648320.00000000
0.43500000, 0.00500000, -1983864048601879101564394062444139169628398957053360603342977440085649248684656863665771373681195026264010919614457153320604569638907136372859039665493059480244550568657235843720916092209790479969183973963814181819470977309120848590070159331425388138010509030545424384.00000000
0.44500000, 0.00500000, 2020448226792747246791803143561395461200962743449426831738267272807269232226049866357132032624080168277332359771145897317340674532877887123834819332327901204779841762636577293263082604285707850919297963832672317549463364139872787176551291864769816458818439297942683648.00000000
0.45500000, 0.00500000, -2002816821121453495174431222100896310716758458750547576264768840412714605857797338175960694981699703174534300197078694633955586982918221929347629833468334808783372791218034247453108828172038657149124658719465541030754186122558925315594295641683343532714881267548553216.00000000
0.46500000, 0.00500000, 1936173768359825884007595618096177072179434907670290959676921647662035140359329374749402384555984623103100842025941635251948802682825367976335822011760917703628204792890515890454151438336412923652959344482982608058327584670967234600919856382364967303525631986908528640.00000000
0.47500000, 0.00500000, -1806454514496763785670688209377906927672016820679355000546755889858007913508100199918918120758312094922390833554940647145015760718934617018292604365807973817404736115140619737623112284896603028403242473722732992349203450027518728502831753294008147234418299227764424704.00000000
0.48500000, 0.00500000, 1591201715371048073102340345234910932103820268310139250446193073793294820147440471985614660060007545155534425475659578805247343940827224709760275009923555098634454926728375994594368135732379319686810640968694771776938915000659126537766533088343868007611714023700037632.00000000
0.49500000, 0.00500000, -1277194908359323454567589833908759775571148326215259878427951722457185899584703638762881798435038386273647103863116130935743484454444201468962437664735017481012205764602782688173005325509644936735506989697286975439253111880797720115771541479592838105164623038174461952.00000000
0.50500000, 0.00500000, 872611192902469041053943545132209882782086246420713446583987787691516669182751433912100250617164496575177832416241039024687151509568076646516027829141220762318470708138901416054656908405629382035834099531196439679682502114759386462814192713687762816162595438367604736.00000000
0.51500000, 0.00500000, -396179090989254987393510878814933075498565264560385963729667008800326990183726025098592091589294885433194180161518977326286292142124972810793143930644339319443465287773234989493022475873847553841552791663650755869575748894746397152638260583020182830810870863607365632.00000000
0.52500000, 0.00500000, -148575161741822446046079532731023410798096425508052057021913483169894926592161218758817507268133009106019926276884725846233742945682717283785679089406265613770757888337295751082086205923571011317515846627383025811891733291287377133294866374470773755570548365099794432.00000000
0.53500000, 0.00500000, 784411875408503271189040066844282616045423583962507930620622551334895562340411138985318959421751980258940230109485939008315146106741084316389742699446329311889826165200743161470529647190576967456091127977321845797945648635400222551009714624098313888321586640667541504.00000000
0.54500000, 0.00500000, -1531901244302020199133170934813495054306148362863350240883922629203940283648736163863004512067241015904217475909949412071653715012808053140221987497564531541610315390121831805513846350374597931068411513101450805362381435013870615884464704665944407120055446912186187776.00000000
0.55500000, 0.00500000, 2374625928779165487755171936052048477901527954398602839359629765303361393997998903012681447797663614009073204310398701159838235946726904250973378950681698021925176744731003620531913354772519723995413115310525556102988280665683588587299287321911583425069948896186204160.00000000
0.56500000, 0.00500000, -3258729526895268788642449855857288370224440367423903232753016698792188597353011097876566108189491634361995565588008623183249655480098374067205763728961408655815241780521444135546066155687069603192983849715969622830644130625654583863790148805481345362356738275248439296.00000000
0.57500000, 0.00500000, 4124293300407051045366246522581234887867958677424517135711835050955192801798134512288638586622404381386037158797430377449307037932633761190728436546594981886498385596386601798340081084200086273841850346053620215117379239309130482684303590357157933234356721720808701952.00000000
0.58500000, 0.00500000, -5005313948365750582170089012986068343158269970648812788024032688215528423643975359195863276835527964970742053065338301913609552227003667053214760531092461776833446258221360499265457766710083472900557998690905533960686414516968864651711913047043922016341248985127714816.00000000
0.59500000, 0.00500000, 6015646421170949798563900182015323803275069320611553627850748709999869923259795512866882660101542777012777643878119431942238543956359815736063260125051989311242877374635309054897479639338595136216697333228782895600510054658504310467060114663360233825111587451618459648.00000000
0.60500000, 0.00500000, -7130661824949672750691144086957392962341958806452456946095447330096932594244749261402814122493405293705100533847226733417840895161405822701962026835321842565192714190015054807183391697773942319147097858835039855352979214224651054758754731873885515361061505239951081472.00000000
0.61500000, 0.00500000, 8191116705705086172681790486759347915318242504021034679453982729914566893466128587239069713104137601652995741040750213937805699372349808568744985207005596918604629903766278939089147105807034161965941071988877523844196001254236115770454543753939003009714201383449657344.00000000
0.62500000, 0.00500000, -9137381603943350571823968103912722832014325094689058667757513917198828055194916523545683475301727487477651113354838133734765768953781440925337264613719065379380711915026798383200319282739508526183791024041672831175932076262930527244910058393141948411809864073560981504.00000000
0.63500000, 0.00500000, 9939301329552597974735854610828557118813066922109133721820105720764867949407985090877874720908943663203559246488917957803248398135117697008558989238320247507133724497936262596018156188406338537347232449106421732057414041902015467394487506424545353269820100935296221184.00000000
0.64500000, 0.00500000, -10674060204721165074068520960058331974342941179301694697278090903416085817805295640873433248434243495254896753162432199852502352454211567827697550047955688542705307179273657940409635042876796278806963156284098474441382048682163207434766989811487422524116788556978978816.00000000
0.65500000, 0.00500000, 11569595706243988989058134279137406991987033545065990708197469800709446101243534229571138068029733397987667266714481595701087252720881282633484768832931966435931542059236839048799331953352307766738905947025162546145613759692424287570990863684993607865604254041483771904.00000000
0.66500000, 0.00500000, -12519321668056488047833682553185649143578315868730008837291508729970430536458661008314483000325936847789323160470798847375010049061857942206151141743451833223945108504585130642188323119129895460802647982482569322929163077395665778947283574007617455326913542074790838272.00000000
0.67500000, 0.00500000, 13201999515332969765371648884144569106958044545037401680980607404568765495915484237174567921098034014195825999463597437293079798794129518313496319427455297350880362532791064704923554424631668666921796725252052920050282288720352887818051758135639248040338871422696816640.00000000
0.68500000, 0.00500000, -13559381594833214503245444400954330065960329718694217042749818932659465483633703980876948388902166826941619203022045940658417693971345594399453804510232301583369607693112583987555308879903573541354154437055380404626008198036152807625521013745913408384822384809417375744.00000000
0.69500000, 0.00500000, 13693747245960678445668598757817196261205272503409835767241836687242191505773431455459028468749774494423552438495858503567160061269862583597578718839079003270351178339592582731262248331616192122564790627116768428424009376248861407977087835734596989622273489436206432256.00000000
0.70500000, 0.00500000, -13827279070741573601469227425858434494790819933449853996082816943762014050954336344121409734246093239191405465724063867902279817994129495012183037431275781482710371960672783129314904928604595878865113971554848637372308395389029850324497333956031344225248688221177511936.00000000
0.71500000, 0.00500000, 14208586475119565723937585022170216066402380150682321119150684411099451898926155893937314651529617128855776100960661335435692520245030813099240952650010649607673836264494585279227616276827300643054638937513765594152924494124530317656547200083169449396728486441640787968.00000000
0.72500000, 0.00500000, -14661615022757945783222761557665459732932416785735143419250315262709739262128369828916883031300782023859394730532352904373614903982671870899416286705187405720505085705005385288651516057611897948504885861223419121046883868648896418265681972754682329951761367043674210304.00000000
0.73500000, 0.00500000, 14727458783728945721231138944460083866350880846921958039837320516755119679570788985494993863332544029459051716823717111980999383726759774649604823784398198646117522731527221341918873702482710062783468889943570020166397051046607922063343364708886585135884211665302978560.00000000
0.74500000, 0.00500000, -14057322776159678663597628840409715351774674236008391367197737259743215714778718585814120613970282510655272008051628436681563326648547122080081890446641151965127721805801659043700060532360824078631971034718156334324630855194366273959830567846343157999092512062682693632.00000000
0.75500000, 0.00500000, 13070759433417550774607493316775107630731522346582899505549763702869755755423147878862066185514806721938985744386628593966636641358300646838711992008301240008989793138221518905121863776695075597848116502578234469843095377270932688613132272169936256915337600218932707328.00000000
0.76500000, 0.00500000, -11169829219242043478058384693298936753512229875741675174453850797045087989451784537189145721088389196495687926225834063922398179270603169957714114330664916311880595134038618269283820965900683093982561199736090692734694765105151302998556377695643784777933394635101569024.00000000
0.77500000, 0.00500000, 11934817263220994676899511098260574145727723479032966535710867997410202295449692544928665583570197441161274486089564076049863542345636306285500256194291802336516187736973313437804540624994586375758969776517010624902098971629512521654021980940013676041557836220495560704.00000000
0.78500000, 0.00500000, -9946699897850077950424300202906650586053103797793266055106331137795580453539865965373210110001110912934098897409297352719389552274409495431496468703526539405701444196929717631305325406106285140065498883299907213828697455312242937363264231027011234612732345268328988672.00000000
0.79500000, 0.00500000, 9999967522694643089183689035386598637051632344872657226607468415933413288181635859866855564265590798895469978256373108314469937691410086470824433660897455332789079849459260228730399938238247712317546408396120995675127859614446323349371902515274703755712832915099353088.00000000
0.80500000, 0.00500000, -8153039732818709276115466356388282663983238642201489016573224359892537775854956514442651868917795493308352316730933130181602397833739780896346998136943701310326450370289703986034027861217769119123843401415465675327457522124920840207502529575420717324319854719160811520.00000000
0.81500000, 0.00500000, 8146680999183484779238222827385421097041731336870072547612613777720671967198535721954897097521696578956722662475059858300299708886227084084521260480245903142608877781529418741118015003841615120239845008100142558535496321413637519162346290531875226905818880164174495744.00000000
0.82500000, 0.00500000, -4895990963757545265372876971688463029049171434653650350920728027419232483518408012224110511460982718736992635455044502350767897371959361707535190254447511460668506838508699135326679905545101769381849344840387846735232965224355783711717111031146083589699817259749343232.00000000
0.83500000, 0.00500000, 5318134047986470793807093928226445151653507314301861902322958894072052555751805108453854089682070570517297146536352765733989581263885745436765178540360688566047019039897206991522150183964235130197033820915134968918394449759778409988334032091950217851609793559342874624.00000000
0.84500000, 0.00500000, -3431295851680997630107172563480103269162676043091295060359141619126370552955161819766805868068298735721328842834613433230784542927868467558183441623191458845956891757627189806154895212843513147227239800873828631321810599878888395079743742091866044180208535297056571392.00000000
0.85500000, 0.00500000, 2629101205626140084492513442479973890283850372888735402676165060294390617185601371508900392663901129475744101723523262253254458557754907711864301671020304840338901323288422190099861904487830877978005208048690683255772320491322134573673654394907525663101316422866829312.00000000
0.86500000, 0.00500000, -2845219201567156360410819730043754523554390115576746652418699422120991756933460029905457437242979113859929856682737209131934912802246074610686830022839372542073750264320626578332725585090677165659593514200335552949109430100635698113608043988914270236602197089443643392.00000000
0.87500000, 0.00500000, 2240656188606081937569065884787063876251231270248029387869674120501031282350193659458294854260144970447357620023401972131624552430923385474279734686191427158355314239944217495276239777147919262301160804718948097612722057368824246594106572290593790820976776250312884224.00000000
0.88500000, 0.00500000, -1659279427552511276546460678437105077926542842575552786788651497753187902736466974781479754283707792795797639960277189636136340930624735627139525157430591207004824317119120310764850972383403940893545850052956807370487531982105378689317879451792176791070191319817125888.00000000
0.89500000, 0.00500000, 1147719644564512590235101613787380173626006103906234330156728844096413429921798023131625348653993703437432992921825454071703728444488937217968317962185880154052345401062022468332241743019006900012478876622636380459458475276564306729270824403739477158055179523165519872.00000000
0.90500000, 0.00500000, -710601845035675626831858065930539735683227346471454833397633117324727529605714558040355212846455788204353078955454801144472364234336160722405707056037480307089525791437308638335854088336050202848771253045737303909182211475921342289243198968913116440636355598016839680.00000000
0.91500000, 0.00500000, 358533941272121383549540175535271959863024190208460139182525850667224140038132009037026974487711173935634711979549368722492505545336931620178839679718042905529912611976072586273874602712824623901847891669386030470596174542747727237402095065558269150143245970032295936.00000000
0.92500000, 0.00500000, -85911217921549343776312335613491790114160386162908246635354635316491951859714871005538729693438303531092826259378800471301356826656579205477152225119960572648503677596777413247667941564648557622242297901559218504309852169316481014866696307304442109201242049631748096.00000000
0.93500000, 0.00500000, -114144468147473809579375607948040390869136821733172370214201779622125716969443296381040377621581368123759077465189127236460274440419797305860530830278049911585141940719166193721325318877170939704570852711006268001234045164088009427636150555956629111817323294452875264.00000000
0.94500000, 0.00500000, 249259582218538083771839867622371249866854127385980726884087850527774446023243988019686093044670897567547070915291724577902145561754727179620149722759521706554275305286731995156205075352940390327970655309880571668670153684918520555128704581318823393768665060546183168.00000000
0.95500000, 0.00500000, -314602656889079839293281714057509654171186411150576192145988769098279844329440721645895728471252575057859577575482708416602918643071533067489616405872299908293574901447075917431922369434054572323472451359741306313938343373874978160826015358028372388957224957600858112.00000000
0.96500000, 0.00500000, 327413231706301897019028216372125698017522852850698582197474098911848153185395290438520639430288712839607428944151410176946203258428051573847080679837641311288052923170877569620007576589877513855294209045365247051656548386717881934157550300944547120613695807148785664.00000000
0.97500000, 0.00500000, -323770508598768441684687491514364680082560335244510339140300407591525400000387054948042861791845236148344342154742395331668939781703685664673086802859220212219430267128798573260306638815485276949509336163210260398328053169804506495445755594250300457281867343464497152.00000000