TITLE = "Linear advection equation"
VARIABLES = "x", "y", "sol"
ZONE STRANDID=1, SOLUTIONTIME=0.75, I=100, J=100, DATAPACKING=POINT
0.00500000, 0.00500000, -172465260046319607479317460680704.00000000
0.01500000, 0.00500000, 177978505822353881421873720328192.00000000
0.02500000, 0.00500000, -163078347567432707481610649337856.00000000
0.03500000, 0.00500000, 131046934944181549883958033907712.00000000
0.04500000, 0.00500000, -91238260435592700113031125794816.00000000
0.05500000, 0.00500000, 47240704530767184475513637830656.00000000
0.06500000, 0.00500000, -7193199168545467395399621804032.00000000
0.07500000, 0.00500000, -22425769942898489417529244516352.00000000
0.08500000, 0.00500000, 38137999943638445834067236618240.00000000
0.09500000, 0.00500000, -40001809948494553002456498831360.00000000
0.10500000, 0.00500000, 29594609373271060345995023876096.00000000
0.11500000, 0.00500000, -16937633294648722549419301404672.00000000
0.12500000, 0.00500000, 3882269455135743616532132921344.00000000
0.13500000, 0.00500000, 2234963357388637485166525153280.00000000
0.14500000, 0.00500000, -546758505626903859971733061632.00000000
0.15500000, 0.00500000, -9132887528122388433588163969024.00000000
0.16500000, 0.00500000, 23251039161872773227867449327616.00000000
0.17500000, 0.00500000, -39119382404890787269648073097216.00000000
0.18500000, 0.00500000, 52888654356350865783272079622144.00000000
0.19500000, 0.00500000, -62378757155594344781560556814336.00000000
0.20500000, 0.00500000, 67248666306097932647428658298880.00000000
0.21500000, 0.00500000, -68418442323671440357158169870336.00000000
0.22500000, 0.00500000, 69622059594395814013310896963584.00000000
0.23500000, 0.00500000, -71716226078346175797397326659584.00000000
0.24500000, 0.00500000, 77414626861179019913100789809152.00000000
0.25500000, 0.00500000, -87457847625550264705655993532416.00000000
0.26500000, 0.00500000, 106070291146528252637921360740352.00000000
0.27500000, 0.00500000, -139304112233379338680869643616256.00000000
0.28500000, 0.00500000, 186393446375250958501478890733568.00000000
0.29500000, 0.00500000, -246280689681459692071376694280192.00000000
0.30500000, 0.00500000, 317644781941463760382126289059840.00000000
0.31500000, 0.00500000, -393605694669032575953556618608640.00000000
0.32500000, 0.00500000, 464413782585401729476164795236352.00000000
0.33500000, 0.00500000, -518802905869154817856769777205248.00000000
0.34500000, 0.00500000, 544510118040540887197554776735744.00000000
0.35500000, 0.00500000, -519149252672340804594812298723328.00000000
0.36500000, 0.00500000, 470275055827615689089940484784128.00000000
0.37500000, 0.00500000, -370634703672480360028251663368192.00000000
0.38500000, 0.00500000, 243655587081969609851062645161984.00000000
0.39500000, 0.00500000, -128153642049480782965331606896640.00000000
0.40500000, 0.00500000, 34041090069160842677780895236096.00000000
0.41500000, 0.00500000, 14390880907263720805673472098304.00000000
0.42500000, 0.00500000, -5963462442320562026655120359424.00000000
0.43500000, 0.00500000, -61384576466775229244985395118080.00000000
0.44500000, 0.00500000, 181267066611713817010771159154688.00000000
0.45500000, 0.00500000, -339947899908017748845771198824448.00000000
0.46500000, 0.00500000, 517060943322579526583729621303296.00000000
0.47500000, 0.00500000, -687031442570674448740544386433024.00000000
0.48500000, 0.00500000, 823385319969661376732682038280192.00000000
0.49500000, 0.00500000, -884370071613118217566476650414080.00000000
0.50500000, 0.00500000, 880366463121942846331835304116224.00000000
0.51500000, 0.00500000, -854626734422635885954027109744640.00000000
0.52500000, 0.00500000, 779009536929360431761524789346304.00000000
0.53500000, 0.00500000, -656517530951057930521869719437312.00000000
0.54500000, 0.00500000, 536270584059116303229037064486912.00000000
0.55500000, 0.00500000, -442256467981089893607689414508544.00000000
0.56500000, 0.00500000, 387843694630408905697252157161472.00000000
0.57500000, 0.00500000, -375026438177983101655848117600256.00000000
0.58500000, 0.00500000, 397856301372162725971747609247744.00000000
0.59500000, 0.00500000, -445635484184034776797692129443840.00000000
0.60500000, 0.00500000, 503407718400626010024190291214336.00000000
0.61500000, 0.00500000, -552751289542073121440847034843136.00000000
0.62500000, 0.00500000, 576657863351928688824259985801216.00000000
0.63500000, 0.00500000, -565127515074580364474382928576512.00000000
0.64500000, 0.00500000, 515839561957191696677694225776640.00000000
0.65500000, 0.00500000, -422812627378163615368186729332736.00000000
0.66500000, 0.00500000, 318184708026638896937849021530112.00000000
0.67500000, 0.00500000, -199709330240668982934389959688192.00000000
0.68500000, 0.00500000, 87883651712581849982933661646848.00000000
0.69500000, 0.00500000, 5689966228818269758081212612608.00000000
0.70500000, 0.00500000, -72420999178635326787693846724608.00000000
0.71500000, 0.00500000, 114435381271642600110732940935168.00000000
0.72500000, 0.00500000, -129934126648950482314241855455232.00000000
0.73500000, 0.00500000, 124196651595602894789447079952384.00000000
0.74500000, 0.00500000, -106707742610967611128295374979072.00000000
0.75500000, 0.00500000, 70509204435486387181147798896640.00000000
0.76500000, 0.00500000, -36839585095192141710842140819456.00000000
0.77500000, 0.00500000, 9848182799739722936474788691968.00000000
0.78500000, 0.00500000, 19947049419624395749487179464704.00000000
0.79500000, 0.00500000, -43577447688252890675702684188672.00000000
0.80500000, 0.00500000, 59969625894014125711014519373824.00000000
0.81500000, 0.00500000, -67863346935018846094958079770624.00000000
0.82500000, 0.00500000, 71376989556939793875802230095872.00000000
0.83500000, 0.00500000, -72463167804496033138657166622720.00000000
0.84500000, 0.00500000, 69970612397326038540491285331968.00000000
0.85500000, 0.00500000, -66459567073846467959812226285568.00000000
0.86500000, 0.00500000, 63194679021812551681995935055872.00000000
0.87500000, 0.00500000, -59340029584962716820786051547136.00000000
0.88500000, 0.00500000, 58442060467886480854199434215424.00000000
0.89500000, 0.00500000, -56254416444909039854095488253952.00000000
0.90500000, 0.00500000, 53320156004014032893702855196672.00000000
0.91500000, 0.00500000, -49086854016264296247302796869632.00000000
0.92500000, 0.00500000, 44085410704639374476467991740416.00000000
0.93500000, 0.00500000, -36528228596818488410855893368832.00000000
0.94500000, 0.00500000, 27696971225075185694148531322880.00000000
0.95500000, 0.00500000, -12980646593343418973486923644928.00000000
0.96500000, 0.00500000, -21822304177118329890229819801600.00000000
0.97500000, 0.00500000, 67175209590998734655910783746048.00000000
0.98500000, 0.00500000, -109807000031348490342697634103296.00000000
0.99500000, 0.00500000, 147719935385414197861971245662208.00000000
0.00500000, 0.01500000, 381760550634068398580954969407488.00000000
0.01500000, 0.01500000, -352282303970303405991568519200768.00000000
0.02500000, 0.01500000, 303524380887282362926641925062656.00000000
0.03500000, 0.01500000, -242308934874805572902558969626624.00000000
0.04500000, 0.01500000, 176137842645898753810935127736320.00000000
0.05500000, 0.01500000, -113631215492903579378771937984512.00000000
0.06500000, 0.01500000, 62766934228485177357232123150336.00000000
0.07500000, 0.01500000, -28675098836218653681283986620416.00000000
0.08500000, 0.01500000, 11970238019849478379637240233984.00000000
0.09500000, 0.01500000, -8996584103120103467123912736768.00000000
0.10500000, 0.01500000, 12942632132742064149373325934592.00000000
0.11500000, 0.01500000, -15532566579551267181455973810176.00000000
0.12500000, 0.01500000, 10434750274684744439324062253056.00000000
0.13500000, 0.01500000, 4622044021524697005218917777408.00000000
0.14500000, 0.01500000, -28430780222391074997761338245120.00000000
0.15500000, 0.01500000, 57265657710007389957468501049344.00000000
0.16500000, 0.01500000, -85907515192761391521729702002688.00000000
0.17500000, 0.01500000, 109387989938716874102600785461248.00000000
0.18500000, 0.01500000, -124485359376636602159593984884736.00000000
0.19500000, 0.01500000, 130497211269544068532846488190976.00000000
0.20500000, 0.01500000, -129357146823832320029908885569536.00000000
0.21500000, 0.01500000, 124504173559140673693562511032320.00000000
0.22500000, 0.01500000, -119462764694569468155887014117376.00000000
0.23500000, 0.01500000, 117448767945018526795094000926720.00000000
0.24500000, 0.01500000, -121560514988526043212069105303552.00000000
0.25500000, 0.01500000, 133890693819432605332929746305024.00000000
0.26500000, 0.01500000, -159910261831244218490772579680256.00000000
0.27500000, 0.01500000, 202971424520038747135725310836736.00000000
0.28500000, 0.01500000, -263215664836368702065027238068224.00000000
0.29500000, 0.01500000, 340819834974119804472570727628800.00000000
0.30500000, 0.01500000, -429843290548847287782578627543040.00000000
0.31500000, 0.01500000, 519727326331129827755406942797824.00000000
0.32500000, 0.01500000, -597792719789823536757926633930752.00000000
0.33500000, 0.01500000, 649967534154279892650138127040512.00000000
0.34500000, 0.01500000, -660562610672720189937837150306304.00000000
0.35500000, 0.01500000, 617200233184584034958427144847360.00000000
0.36500000, 0.01500000, -519624230690848790775048708292608.00000000
0.37500000, 0.01500000, 383367104660925017114355752239104.00000000
0.38500000, 0.01500000, -235359260246934402530784938295296.00000000
0.39500000, 0.01500000, 106320994746726793471486465146880.00000000
0.40500000, 0.01500000, -23718503638161671128828551888896.00000000
0.41500000, 0.01500000, 6368610390381285734390643556352.00000000
0.42500000, 0.01500000, -61637684094967641971245340164096.00000000
0.43500000, 0.01500000, 185580530001158107755556699635712.00000000
0.44500000, 0.01500000, -364757341784818869074077543301120.00000000
0.45500000, 0.01500000, 577723885051194808135500527828992.00000000
0.46500000, 0.01500000, -795859100839075769207594074243072.00000000
0.47500000, 0.01500000, 986124210157028557849693563912192.00000000
0.48500000, 0.01500000, -1117916312979244092216514795536384.00000000
0.49500000, 0.01500000, 1157454255614682894435555311878144.00000000
0.50500000, 0.01500000, -1128276867583330767622049391181824.00000000
0.51500000, 0.01500000, 1042099798842141986581323171495936.00000000
0.52500000, 0.01500000, -896638439694958708611195691073536.00000000
0.53500000, 0.01500000, 740192333439976148052365828685824.00000000
0.54500000, 0.01500000, -607134116095670428474622525571072.00000000
0.55500000, 0.01500000, 521854492350045274288884805533696.00000000
0.56500000, 0.01500000, -493536802945199666206021095784448.00000000
0.57500000, 0.01500000, 518125604310043555451097967493120.00000000
0.58500000, 0.01500000, -583336072595096639746989187137536.00000000
0.59500000, 0.01500000, 670580050497146612547732209926144.00000000
0.60500000, 0.01500000, -754555992020055878856301256638464.00000000
0.61500000, 0.01500000, 808302643384047128036098636251136.00000000
0.62500000, 0.01500000, -813591828540761362513880917475328.00000000
0.63500000, 0.01500000, 764846874395238639952079269920768.00000000
0.64500000, 0.01500000, -664377345693243700042899293995008.00000000
0.65500000, 0.01500000, 520516845226712114921736408924160.00000000
0.66500000, 0.01500000, -350574310072777609009035307122688.00000000
0.67500000, 0.01500000, 178678256087693025158601038102528.00000000
0.68500000, 0.01500000, -27225341953045939905479244251136.00000000
0.69500000, 0.01500000, -89547014146391021369212916465664.00000000
0.70500000, 0.01500000, 164868663254912714596423324139520.00000000
0.71500000, 0.01500000, -202176044073702513784607349932032.00000000
0.72500000, 0.01500000, 202822099800306751490485821374464.00000000
0.73500000, 0.01500000, -180384942888959338640975438282752.00000000
0.74500000, 0.01500000, 141481773046079725535858981339136.00000000
0.75500000, 0.01500000, -88507158067846763786424048156672.00000000
0.76500000, 0.01500000, 46885035880553791479715477848064.00000000
0.77500000, 0.01500000, -2074543353700779181500367110144.00000000
0.78500000, 0.01500000, -35617348123311642713839416377344.00000000
0.79500000, 0.01500000, 64251960039175396299898460569600.00000000
0.80500000, 0.01500000, -83544477081985235189938492801024.00000000
0.81500000, 0.01500000, 89040578935658876873793066762240.00000000
0.82500000, 0.01500000, -88253191115436568680751920316416.00000000
0.83500000, 0.01500000, 92000700751786048531329705836544.00000000
0.84500000, 0.01500000, -93859260419104053339892008091648.00000000
0.85500000, 0.01500000, 90970055965547364229796637704192.00000000
0.86500000, 0.01500000, -88863331334254645409478069977088.00000000
0.87500000, 0.01500000, 83503324263135035370862385561600.00000000
0.88500000, 0.01500000, -74685244557834364360589412663296.00000000
0.89500000, 0.01500000, 64020905573620757622485812248576.00000000
0.90500000, 0.01500000, -45765794393088054267804332851200.00000000
0.91500000, 0.01500000, 19030227800638048760804208017408.00000000
0.92500000, 0.01500000, 13237385928761025323974271172608.00000000
0.93500000, 0.01500000, -54052448123820379831615373705216.00000000
0.94500000, 0.01500000, 94343374409194798361933804208128.00000000
0.95500000, 0.01500000, -149318158037975905729865221931008.00000000
0.96500000, 0.01500000, 226670872455306693010029130285056.00000000
0.97500000, 0.01500000, -296887038695019574727180847939584.00000000
0.98500000, 0.01500000, 354546014095130385628987043872768.00000000
0.99500000, 0.01500000, -384304924851994550882024707588096.00000000
0.00500000, 0.02500000, -668163448340681331607671398203392.00000000
0.01500000, 0.02500000, 586138459387827529435084396429312.00000000
0.02500000, 0.02500000, -492983982776712509290428107849728.00000000
0.03500000, 0.02500000, 396690530855119502648505314312192.00000000
0.04500000, 0.02500000, -307162156185322462822677503541248.00000000
0.05500000, 0.02500000, 231948518797691540607114502209536.00000000
0.06500000, 0.02500000, -175346954363533632352658621726720.00000000
0.07500000, 0.02500000, 138625304382428358193649010343936.00000000
0.08500000, 0.02500000, -117605519157692662396678704201728.00000000
0.09500000, 0.02500000, 103276467608774830094430712627200.00000000
0.10500000, 0.02500000, -85004630775518504383303693369344.00000000
0.11500000, 0.02500000, 54902656512927987335912941944832.00000000
0.12500000, 0.02500000, -11050587364108686989187061121024.00000000
0.13500000, 0.02500000, -43187030408465772800144484335616.00000000
0.14500000, 0.02500000, 101279570998913001986824198946816.00000000
0.15500000, 0.02500000, -155284469940009799320092327018496.00000000
0.16500000, 0.02500000, 198057588616509148432014761787392.00000000
0.17500000, 0.02500000, -225184492042109804054920967487488.00000000
0.18500000, 0.02500000, 235704904979692996388457436676096.00000000
0.19500000, 0.02500000, -232146192133736229967749040832512.00000000
0.20500000, 0.02500000, 219420111112749326695088223420416.00000000
0.21500000, 0.02500000, -202886846765648953771406758248448.00000000
0.22500000, 0.02500000, 187444658013868811709275999043584.00000000
0.23500000, 0.02500000, -177621834712545024924115808550912.00000000
0.24500000, 0.02500000, 177556210055253523539902794301440.00000000
0.25500000, 0.02500000, -190806886925783361055998238261248.00000000
0.26500000, 0.02500000, 221949184694427896810205041655808.00000000
0.27500000, 0.02500000, -273587161417885310099345534615552.00000000
0.28500000, 0.02500000, 347439826097785664649772295782400.00000000
0.29500000, 0.02500000, -440286748212935583736219289255936.00000000
0.30500000, 0.02500000, 542471930587519111472667582005248.00000000
0.31500000, 0.02500000, -640048524897895288534011796783104.00000000
0.32500000, 0.02500000, 717540712439588183678452630552576.00000000
0.33500000, 0.02500000, -756856721891329385856841849765888.00000000
0.34500000, 0.02500000, 739339364210550078513887055970304.00000000
0.35500000, 0.02500000, -656703077853768033334703685632000.00000000
0.36500000, 0.02500000, 519791752057670015085985900003328.00000000
0.37500000, 0.02500000, -355581701854360834648643106504704.00000000
0.38500000, 0.02500000, 198468050085070187144842949165056.00000000
0.39500000, 0.02500000, -82600989690946646274235193884672.00000000
0.40500000, 0.02500000, 35096447795490508684507842871296.00000000
0.41500000, 0.02500000, -70572004174271051705058691383296.00000000
0.42500000, 0.02500000, 189347886982612828643179861377024.00000000
0.43500000, 0.02500000, -379330150620109996349667592372224.00000000
0.44500000, 0.02500000, 618831746227016821824083684491264.00000000
0.45500000, 0.02500000, -878042293643575993214271079055360.00000000
0.46500000, 0.02500000, 1120372428529536105706318588805120.00000000
0.47500000, 0.02500000, -1307361450221467176757384229945344.00000000
0.48500000, 0.02500000, 1408185497498360893395770611335168.00000000
0.49500000, 0.02500000, -1405765076108384767538129266540544.00000000
0.50500000, 0.02500000, 1318011892322219040161643597135872.00000000
0.51500000, 0.02500000, -1160380747196046536419812902436864.00000000
0.52500000, 0.02500000, 974628683471955544711378197544960.00000000
0.53500000, 0.02500000, -803206442730503055228142046150656.00000000
0.54500000, 0.02500000, 681737709768052524089136885268480.00000000
0.55500000, 0.02500000, -629331454962446216424265544105984.00000000
0.56500000, 0.02500000, 646905693569231288638731544690688.00000000
0.57500000, 0.02500000, -722822046441657248593147473166336.00000000
0.58500000, 0.02500000, 837163123011490994126503630864384.00000000
0.59500000, 0.02500000, -960491414622999594834276818878464.00000000
0.60500000, 0.02500000, 1055856490433997349037543354531840.00000000
0.61500000, 0.02500000, -1091895174745288321503030545481728.00000000
0.62500000, 0.02500000, 1054818039541867764060681593159680.00000000
0.63500000, 0.02500000, -945148618363284023875399300677632.00000000
0.64500000, 0.02500000, 770656420112035920584095855280128.00000000
0.65500000, 0.02500000, -549261790078222445085778943934464.00000000
0.66500000, 0.02500000, 311220516371385123315915536990208.00000000
0.67500000, 0.02500000, -89973351488282998221504717520896.00000000
0.68500000, 0.02500000, -89449901486627293225172219199488.00000000
0.69500000, 0.02500000, 214480824312492072660883411566592.00000000
0.70500000, 0.02500000, -282932859479324320332002128560128.00000000
0.71500000, 0.02500000, 300344324239309327566854604980224.00000000
0.72500000, 0.02500000, -278290526421980830105143995269120.00000000
0.73500000, 0.02500000, 231015028813197846094457906135040.00000000
0.74500000, 0.02500000, -170754335408710214618602876698624.00000000
0.75500000, 0.02500000, 106192243260135960379496404615168.00000000
0.76500000, 0.02500000, -43969312933029333790850419785728.00000000
0.77500000, 0.02500000, -10799884423036471469465264979968.00000000
0.78500000, 0.02500000, 55261412090730660976126693736448.00000000
0.79500000, 0.02500000, -88667000212886852270116713791488.00000000
0.80500000, 0.02500000, 111395197133380836768061103013888.00000000
0.81500000, 0.02500000, -108517596703090706818208551141376.00000000
0.82500000, 0.02500000, 103837089651987422903152708419584.00000000
0.83500000, 0.02500000, -114401548600189400916260976328704.00000000
0.84500000, 0.02500000, 119206958657400560386249544695808.00000000
0.85500000, 0.02500000, -125764279982038111486291839287296.00000000
0.86500000, 0.02500000, 127821908068717243753911950508032.00000000
0.87500000, 0.02500000, -112657777534230575950373444386816.00000000
0.88500000, 0.02500000, 88939779316260005121822822498304.00000000
0.89500000, 0.02500000, -55257578487111147679468679593984.00000000
0.90500000, 0.02500000, 17936397710229315294591379832832.00000000
0.91500000, 0.02500000, 74164582374231140301916679962624.00000000
0.92500000, 0.02500000, -160844638192614714178197631533056.00000000
0.93500000, 0.02500000, 256199873500599978032335285125120.00000000
0.94500000, 0.02500000, -348684335473263926055654683312128.00000000
0.95500000, 0.02500000, 458126735974797541815728952311808.00000000
0.96500000, 0.02500000, -573950824556629270685064504541184.00000000
0.97500000, 0.02500000, 677651406353346632803152176349184.00000000
0.98500000, 0.02500000, -733879957590933679489437768089600.00000000
0.99500000, 0.02500000, 725712157695556472400879420440576.00000000
0.00500000, 0.03500000, 1016964299723436069409559882498048.00000000
0.01500000, 0.03500000, -879682194450726039568168488271872.00000000
0.02500000, 0.03500000, 734603208842083245587766381117440.00000000
0.03500000, 0.03500000, -604478333698342483792790307209216.00000000
0.04500000, 0.03500000, 500974783891228702588213433204736.00000000
0.05500000, 0.03500000, -422727340838067395420176764633088.00000000
0.06500000, 0.03500000, 367020822169713076089966980759552.00000000
0.07500000, 0.03500000, -327507972578798914281461023506432.00000000
0.08500000, 0.03500000, 291242995250194826320564589690880.00000000
0.09500000, 0.03500000, -243269096075846120720731845165056.00000000
0.10500000, 0.03500000, 173409631991536463026942182948864.00000000
0.11500000, 0.03500000, -80876909145975071471897208160256.00000000
0.12500000, 0.03500000, -26657497682019627231904379437056.00000000
0.13500000, 0.03500000, 137143670028227425505231855681536.00000000
0.14500000, 0.03500000, -237557666506958615420858823344128.00000000
0.15500000, 0.03500000, 316884856352472761806143778455552.00000000
0.16500000, 0.03500000, -368742375755781670823036991832064.00000000
0.17500000, 0.03500000, 392059660135501981113683661553664.00000000
0.18500000, 0.03500000, -390234693671987898668136768995328.00000000
0.19500000, 0.03500000, 369745517877224685629227376050176.00000000
0.20500000, 0.03500000, -338206418171158919928010980196352.00000000
0.21500000, 0.03500000, 303046229922408623470668157026304.00000000
0.22500000, 0.03500000, -271276877011173681145679108374528.00000000
0.23500000, 0.03500000, 249096343716088229431525859393536.00000000
0.24500000, 0.03500000, -241429968933758012089998749204480.00000000
0.25500000, 0.03500000, 252326382539071349356437318926336.00000000
0.26500000, 0.03500000, -285472361453883419127259731066880.00000000
0.27500000, 0.03500000, 343670063926657759340831593988096.00000000
0.28500000, 0.03500000, -426821355958003621559167942131712.00000000
0.29500000, 0.03500000, 528726081697676404821287673790464.00000000
0.30500000, 0.03500000, -636149250441918357658419341557760.00000000
0.31500000, 0.03500000, 732099644089514251737970826543104.00000000
0.32500000, 0.03500000, -797208797352437420043872346570752.00000000
0.33500000, 0.03500000, 809311266021996107340518879395840.00000000
0.34500000, 0.03500000, -752175492649409810135458127020032.00000000
0.35500000, 0.03500000, 628884009203033865814413167034368.00000000
0.36500000, 0.03500000, -463206466455316322037417461678080.00000000
0.37500000, 0.03500000, 290406175298651129516330892394496.00000000
0.38500000, 0.03500000, -148777523197481102053839325888512.00000000
0.39500000, 0.03500000, 72641444274333195603122199724032.00000000
0.40500000, 0.03500000, -84830835908207798167929209487360.00000000
0.41500000, 0.03500000, 191928930730367355142687707627520.00000000
0.42500000, 0.03500000, -384763538496905895001615000141824.00000000
0.43500000, 0.03500000, 642043323245012091586795253268480.00000000
0.44500000, 0.03500000, -933317347204455161888537229393920.00000000
0.45500000, 0.03500000, 1220397301490821473954283856592896.00000000
0.46500000, 0.03500000, -1460346709351801141679974061703168.00000000
0.47500000, 0.03500000, 1613388286913138922791221468332032.00000000
0.48500000, 0.03500000, -1654845307844379844541692516499456.00000000
0.49500000, 0.03500000, 1584475489878813163904734647549952.00000000
0.50500000, 0.03500000, -1426385520430297690112967525269504.00000000
0.51500000, 0.03500000, 1221085871838027042034722682175488.00000000
0.52500000, 0.03500000, -1016233231041915294506004642791424.00000000
0.53500000, 0.03500000, 856772991846054203690443704631296.00000000
0.54500000, 0.03500000, -773133983586258749338703724806144.00000000
0.55500000, 0.03500000, 774155428064958010491354392559616.00000000
0.56500000, 0.03500000, -850754868876727374935492892033024.00000000
0.57500000, 0.03500000, 983096993990226241548561462329344.00000000
0.58500000, 0.03500000, -1141099321999989126129611872141312.00000000
0.59500000, 0.03500000, 1282653281560512504680871807156224.00000000
0.60500000, 0.03500000, -1363211787135639041917011894468608.00000000
0.61500000, 0.03500000, 1354115693856067857493464367235072.00000000
0.62500000, 0.03500000, -1248687305061717621428745148563456.00000000
0.63500000, 0.03500000, 1053838926600774604799140108959744.00000000
0.64500000, 0.03500000, -787790992316439609945032824455168.00000000
0.65500000, 0.03500000, 484377537703997439590166301769728.00000000
0.66500000, 0.03500000, -186773123855184361630189425262592.00000000
0.67500000, 0.03500000, -67238720451051530471871149506560.00000000
0.68500000, 0.03500000, 254514916865773245832077946912768.00000000
0.69500000, 0.03500000, -367232420170679301886555575025664.00000000
0.70500000, 0.03500000, 409749895932578473187785498951680.00000000
0.71500000, 0.03500000, -395405875104278643618392995528704.00000000
0.72500000, 0.03500000, 342646759165778548520312958353408.00000000
0.73500000, 0.03500000, -269172222232888069497238910402560.00000000
0.74500000, 0.03500000, 187921434202510869854299810168832.00000000
0.75500000, 0.03500000, -107706905627644832105451789221888.00000000
0.76500000, 0.03500000, 36645741352708746485770397679616.00000000
0.77500000, 0.03500000, 23591043728554078984471249420288.00000000
0.78500000, 0.03500000, -75787044101037192776559087321088.00000000
0.79500000, 0.03500000, 116548411337866146051164248997888.00000000
0.80500000, 0.03500000, -144727804114353141605142882156544.00000000
0.81500000, 0.03500000, 143484380703639650833331432456192.00000000
0.82500000, 0.03500000, -145599587634583000241631370674176.00000000
0.83500000, 0.03500000, 148610635534291503955717910429696.00000000
0.84500000, 0.03500000, -153474310217263996482090623303680.00000000
0.85500000, 0.03500000, 173826821991002544126008317968384.00000000
0.86500000, 0.03500000, -176660597672753498876934069682176.00000000
0.87500000, 0.03500000, 145296577442125497039670961242112.00000000
0.88500000, 0.03500000, -91483502676229375298104423612416.00000000
0.89500000, 0.03500000, 7422724372138282470888351727616.00000000
0.90500000, 0.03500000, 114793897207088009697293817085952.00000000
0.91500000, 0.03500000, -267480440091072344255107740729344.00000000
0.92500000, 0.03500000, 435581072158908392315164743958528.00000000
0.93500000, 0.03500000, -599260922315455957427698653986816.00000000
0.94500000, 0.03500000, 756414769431084217559087814017024.00000000
0.95500000, 0.03500000, -925661366443322853076122757758976.00000000
0.96500000, 0.03500000, 1095074405116606006714229424390144.00000000
0.97500000, 0.03500000, -1206292182575352240579295475400704.00000000
0.98500000, 0.03500000, 1212625461081940075060453024202752.00000000
0.99500000, 0.03500000, -1134158997296505827967571851214848.00000000
0.00500000, 0.04500000, -1405579350907743447856672554352640.00000000
0.01500000, 0.04500000, 1209082876782762317911573217148928.00000000
0.02500000, 0.04500000, -1013877627307144235643004933636096.00000000
0.03500000, 0.04500000, 865901363835543820460768121323520.00000000
0.04500000, 0.04500000, -764713862389015675263900685697024.00000000
0.05500000, 0.04500000, 697300398798491081419976593113088.00000000
0.06500000, 0.04500000, -649011383365507909769004884951040.00000000
0.07500000, 0.04500000, 598559642558691923345306690781184.00000000
0.08500000, 0.04500000, -522470882222384671782641103536128.00000000
0.09500000, 0.04500000, 405150368145614099153042918080512.00000000
0.10500000, 0.04500000, -246336021033681558119858153979904.00000000
0.11500000, 0.04500000, 60243114438197422028487462486016.00000000
0.12500000, 0.04500000, 131626944389212554124716228476928.00000000
0.13500000, 0.04500000, -307343193778699145636308301381632.00000000
0.14500000, 0.04500000, 449110245942925385032831390973952.00000000
0.15500000, 0.04500000, -546614911515998566584121565380608.00000000
0.16500000, 0.04500000, 598037029939282216973672214691840.00000000
0.17500000, 0.04500000, -608024114299468165425473727234048.00000000
0.18500000, 0.04500000, 584874967009187650430271154552832.00000000
0.19500000, 0.04500000, -538489333684394885237794444148736.00000000
0.20500000, 0.04500000, 479276026019942329772280402411520.00000000
0.21500000, 0.04500000, -417757789092773260515390554898432.00000000
0.22500000, 0.04500000, 363676702904125550345084494413824.00000000
0.23500000, 0.04500000, -324576929098117325572320851394560.00000000
0.24500000, 0.04500000, 305535039557612968123749906776064.00000000
0.25500000, 0.04500000, -310189171137678307502561043677184.00000000
0.26500000, 0.04500000, 341393727658533983253677685604352.00000000
0.27500000, 0.04500000, -400561302372290634445853955194880.00000000
0.28500000, 0.04500000, 485322475389116736869174005989376.00000000
0.29500000, 0.04500000, -586323869031562615538434200043520.00000000
0.30500000, 0.04500000, 687296270372481197406580425883648.00000000
0.31500000, 0.04500000, -768118945328248333557117436821504.00000000
0.32500000, 0.04500000, 805700683900009398324382159339520.00000000
0.33500000, 0.04500000, -778677268698421239545444991762432.00000000
0.34500000, 0.04500000, 680890678984539108891087060598784.00000000
0.35500000, 0.04500000, -528900860915024013736615859978240.00000000
0.36500000, 0.04500000, 355483032816253553957362896732160.00000000
0.37500000, 0.04500000, -200209834591367574131729686855680.00000000
0.38500000, 0.04500000, 102231634415194027814670703788032.00000000
0.39500000, 0.04500000, -91913257774690849638251424120832.00000000
0.40500000, 0.04500000, 183346329167103494656512533463040.00000000
0.41500000, 0.04500000, -372241469712022050979033041076224.00000000
0.42500000, 0.04500000, 639041689287262221593687455956992.00000000