TITLE = "Linear advection equation"
VARIABLES = "x", "y", "sol"
ZONE STRANDID=1, SOLUTIONTIME=3.65, I=100, J=100, DATAPACKING=POINT
0.00500000, 0.00500000, -784763414448715546693803172320383714487889673854277002963849473560410269745740572053507154678395406285913638884644033494339414198069998135282533996342833955740101472419840.00000000
0.01500000, 0.00500000, 787173401564371754748613384183879169936775043502015139579105694156923640089400504061784486895025370355087594841929833642005900810877531328977391918302044933113800067907584.00000000
0.02500000, 0.00500000, -698252856645159815986618174768420378322790020870893835923325441669634158677175234476003811807735232632181198699363915855129545294308519098712609420812186719795648737050624.00000000
0.03500000, 0.00500000, 592500969728444297117206797835703321772994418207146378521492550716064032856648481637941036807346349586472162724857514693621187801877496792204534242254362318346932849737728.00000000
0.04500000, 0.00500000, -495197779309750935180153088000957871543443157667518920875106624343780455738872029571177728252181035775391670194754208258333636231386332840405665517134156068025338790150144.00000000
0.05500000, 0.00500000, 402900890092120051859511309562650443906212686113369388938154358476028244257235118737433854040518910947737607688124577955503665459865696496016747331879948691640456186953728.00000000
0.06500000, 0.00500000, -303392907935692311288241059543531005659197321860454753051467273885590791534050931779540797526808304837530262717947013545634528158840174421451929956246411548463898206142464.00000000
0.07500000, 0.00500000, 210695310651985279757486021072130359992769826791273102106073530238836384056657006022402695851937486130991882335417839689421707967959096075368393053711577652408048781623296.00000000
0.08500000, 0.00500000, -130745612489092548368312970747585275507322490799659652400716112356445451847536532294343537508844364214176676471216610652647573133897945039518187038783137954911351633608704.00000000
0.09500000, 0.00500000, 62613203050783174862997120234900678408003917149150413896953916366242074027163641027676781955049477095823031195495960346674114373428733460603401293503162349318805066350592.00000000
0.10500000, 0.00500000, -5657517042171947827556769670538996502504537901582395799097777766305947169644281958494871880354528999287507341141625503876328843289346265192239178273784897298848381140992.00000000
0.11500000, 0.00500000, -45467357783847369304647392634863940841487173045645357664868168292200905909808771425521929221437692615045273537626139592500749855168983774025209391042152020740807365492736.00000000
0.12500000, 0.00500000, 91468225268109964618947806716639118334066289505007351968365157342122020508171095331787509680300361607702080120975705403915022362005144441012147324262352950721359254650880.00000000
0.13500000, 0.00500000, -126088172498069946064073424460081890845046501800581456831866131087921534103819781786949174677810952665719368661631069092418838743757063970313681305621646888304018286706688.00000000
0.14500000, 0.00500000, 164305667498484750764047677059435047469766895066720271235433942620570650721892264548982895877809938596359963501985794342974949492432791143810952837090581151142245017059328.00000000
0.15500000, 0.00500000, -208182077651033525062739550972911710228888835413304908837384757417297685552306698524792366090021680798652983379655947905950869076400912436493641810845046501371884230148096.00000000
0.16500000, 0.00500000, 238505371182386761940786893349540563363289313882729259692642376563076861874671078449952632683108324313875442596525370748885295976105322667335804406329522190467316351762432.00000000
0.17500000, 0.00500000, -255748243539891859233763074899925479613827367038161374013698259476554540745654099399648860125426381503944612152355048105060265624737976715403755208882790811537423441330176.00000000
0.18500000, 0.00500000, 266817704349470232906662967712190214775578689668788046824280796340284523103599345722215222477343192276854519704361042267542750157772901753810957718002707415768483563044864.00000000
0.19500000, 0.00500000, -271600569850105086923835810050081033227183194494808469335859158794038854289785504773494960971523356928443280929037949159309736429180608013292740115172821771495859946520576.00000000
0.20500000, 0.00500000, 269217627925619105839761473955069238592137169257764797369100855845287932825710574058066395890736397672696367760476901264753059063671138494772289053862902399792269137805312.00000000
0.21500000, 0.00500000, -252714888380536817715976901231984832668422673412498556286152138086835543557056972125280826057679997137126470107773264171081679016422545241404599244477131552910562857844736.00000000
0.22500000, 0.00500000, 236009579559806744191352380340468735844450824140985918821150201313918636483328310336865842885593101788130243798783269888613211013362602763768635532014520585898057168584704.00000000
0.23500000, 0.00500000, -229120529164397695178843834299501054194794810559822739961161008344641879409333722409835081331512232385223903909641047978500023578400082304545371162002772328280469968781312.00000000
0.24500000, 0.00500000, 219591160177827570072343002236887037142585345502640968281833701597627332769795982269820597013871909771612298654337564583125256199951211490716366803488145396816611683336192.00000000
0.25500000, 0.00500000, -214849009495959186355591070382532036622132285444706454783452571507117822461502451960528289291945807335543305790817223730955579143065054538410620490252595596550222437679104.00000000
0.26500000, 0.00500000, 208227500253258709736826103485236454085141130276346359232729424706078858237668957230549596438845338072047678563297821245182598639376748945170463498380520889923521182957568.00000000
0.27500000, 0.00500000, -194375838879241630925635654695929105746781412409710162198634961561512398912247860430035452784531166901260707769361032674583707644845119740855071490842614818750646594830336.00000000
0.28500000, 0.00500000, 184629636271795893875075397244527910526812502945762221329605919899483127436404566792049674931531362743231472386624497558436504465757086032538957236575907304371089597005824.00000000
0.29500000, 0.00500000, -178139019506160956465911529091459956150020871375231700307005293269713509447614656968302750910923809723313831330029016274960971910660559758480284453865538214668691952369664.00000000
0.30500000, 0.00500000, 173873627803328059997331630300244263920004391011025205494549270037876249758869079973150370610942369220283622577546594613816454948595341036511256062773812527547247067398144.00000000
0.31500000, 0.00500000, -172443544810840265094865378176655430618418299089844177486025868174817043952835426910466021171078833038739798734807735416781535944390047253851411753821668496057179811348480.00000000
0.32500000, 0.00500000, 174072699712992593726889574045305408073974831167760741523201115598139417652597232733162491780556908278803531759609755002809668184062056867256003312543382117985603804987392.00000000
0.33500000, 0.00500000, -179179685440401719656172889508247220691306957905134519654839270258415393660239100234032460852827602928955114625131178990117308842738696521775555428967955230431303589429248.00000000
0.34500000, 0.00500000, 188836767960980033921292900309547554937448901202486950807137211309123043004859207803256885368368422362659376598603127186332564713711689846475788793130770333698845013180416.00000000
0.35500000, 0.00500000, -202848594306239311387233748204989525252680086656691793922605102568131538720105227236588203342710444738593432075396000127803299023260637282945668360883144171564293695733760.00000000
0.36500000, 0.00500000, 220225670299403854865300935759041188051780481225238036326294090646570294908396344968371513874571440339753208548803242419498843140729319357988187656798403993508297985490944.00000000
0.37500000, 0.00500000, -243752259414477688331401184668893974565902936766358261995308315837065836345002136484648724087826976420131618969520984608457311052389040761313985648190810194586872190074880.00000000
0.38500000, 0.00500000, 277193931901762226641014340218075971783620816046089304260351914402686549413494330228539013798218538965350847242935952049624944419854471340061605013505168608226997348335616.00000000
0.39500000, 0.00500000, -318844817881342074259918329792513099843928096177938193683303836185365495440045654575645538516620562313461796065526885166028737515631710186924554953083696343123890668568576.00000000
0.40500000, 0.00500000, 365097835699176526577502098957514104258447471297179571949450044652542476142938216983636017752919171758746688080602661745267857675307401753677724794802319830358346361208832.00000000
0.41500000, 0.00500000, -413429606321040926567772612519068064284850801903281031233580182243836367318211639257828430691737810068998287904709428648841637732897578060706610173956104750706293536194560.00000000
0.42500000, 0.00500000, 460980281876755013466292611270957262933517990107986593725291927061923032512716532801324487436182996764176814767425534414408215193568744740341606285363587364348826667188224.00000000
0.43500000, 0.00500000, -506117711681628751431515331650502523024163708489076810296612273784141736476486003610140895953801680949337529274574580918038259622309330088409792209788576476900488353153024.00000000
0.44500000, 0.00500000, 548302671008483603683680231784577464296735569328139872428262332955217530772389898912682299987185651652355945395921430973451475088604086218965324797137325592120259929702400.00000000
0.45500000, 0.00500000, -585946079659774240964107015827459570438084428159464998477384362965206417033653117895467149625740251811999728864146040257497208450868153767703370000213054720660213640200192.00000000
0.46500000, 0.00500000, 616796409275572046753327173683988261212705325231392044731054905577334843194683557965155145256520029652300092225721777070083728819845499235042251860016498520720845538590720.00000000
0.47500000, 0.00500000, -639569473360816703431742570304547997706894722215834672123849326493602036373668917555576006541955781530928166763126442330372143392517056196469082699116649506345701508907008.00000000
0.48500000, 0.00500000, 654816603389163087617940041409016437650911725348912123565822541441770205500095749750942085274507398797653749925990684790590621557887637301195330487224964983710280522399744.00000000
0.49500000, 0.00500000, -664585553487064452901586159516935635957162086624213850208447243308329516006141974193222286171353317317466041715532683068406056523909221576750328962000998706291676643590144.00000000
0.50500000, 0.00500000, 670366548814961092242240805141718727354310721579423666415230927237208999616318221367657271560870117580789809921521811764153375685930232049315283654388535261631657604546560.00000000
0.51500000, 0.00500000, -671164735689679808764401660550371548154811151087379134513651052080458496109186731888277737102438252796314805300169703837640747496514798875883952253673183220460900948377600.00000000
0.52500000, 0.00500000, 664373344256323595470917899540518114565506839103758209962065986162150389454076407499356936633641102948114463416037701309105104137141191502133893310210221366138069468577792.00000000
0.53500000, 0.00500000, -648074675689074076947121168727585651812209747659551457089606193674848841067839930938721829704643666901861324119450101660888928377052642296868136920726006023965358661042176.00000000
0.54500000, 0.00500000, 622236799790506540315655937615477813683840202584301821389742925011495068017727194548251878667860215003127269346008799875468359848150360283686709511373593195121822318723072.00000000
0.55500000, 0.00500000, -588385652574072138445321938979638971714283890978067166401166833075661369312325397355753066842821416028029017967642924157649319814371135042379807142292216055723839570575360.00000000
0.56500000, 0.00500000, 548229641625147566468112888392179689477201488897769862278337687354666009049783188969825236098423253691716890328539162000361703866011919610731018997898893999049066030301184.00000000
0.57500000, 0.00500000, -502529781094997998036655901466046275484163495180988632938220529646277487485085266767946688405179653988951924276548306904131600360554206920353647039708088626630431250317312.00000000
0.58500000, 0.00500000, 451450464082928014572731119918736779720951740861138952537336710952663246644594108992980480009862315730470585771069689282041789794419520766767040274449118121162372001300480.00000000
0.59500000, 0.00500000, -395877854229231483479639657208212007393663710145628178776790240754989331795783249159503060666966726571486890434590776738427776016263893510300542776634030934326390231662592.00000000
0.60500000, 0.00500000, 338244140533837517725290525645615996151321460302610221481510104463802084297518509901469951125773100058925517494142927022738486912682190099920234547197832857568340042842112.00000000
0.61500000, 0.00500000, -281952733042000298706341601179359453532771785345350115095470874345324151473447742535298916219374301052544474492044278897255150852896824968712063135062494009427522257682432.00000000
0.62500000, 0.00500000, 229594258380761081542934861684974299356424004354797182884046430048507873730114511629811977481161316024540486023062339942771246509312516358333628756507945703338730646929408.00000000
0.63500000, 0.00500000, -181993573123967116785370742120504856873550907488047651462548198016288854803640803948051642128359274483729046456831012092413450306665715394180703892315118672058000512909312.00000000
0.64500000, 0.00500000, 139122479668808247348353059028676797642950011747350679835501150433955344987081122516898665143875952000988058778913897820741111573751855214538786436995491599437318315835392.00000000
0.65500000, 0.00500000, -100970350267333871824423227253937995486019583841738329546393325508111140484475965924770858497496706303085382477962841983114240077151479807602847886499792454817116097347584.00000000
0.66500000, 0.00500000, 67801522764623299152022412770991840955705919915584198417042288104021944239283404638941696211399308188864977171329532345599298058570196096917624831617694210387324939796480.00000000
0.67500000, 0.00500000, -40158047204217504413760036716748714100994570587733535344560917246594372543660131903963413890634060111830270042471054030189778236933036953054266119414921823883348630568960.00000000
0.68500000, 0.00500000, 18378598985728998943855915770865413041402672868786192686418905463359542180096319650993030272443019384482551396006773101648847423495155400515950258219305116170138737967104.00000000
0.69500000, 0.00500000, -2553598859705449063591038209681661464281422693460896131662174936119948112734260203286116300058080930038007262846909044187927572244336931009947205066805686441450905010176.00000000
0.70500000, 0.00500000, -8031871887350137957501605304637995963456578981997358130518171024680336536452975844602148321612899999243051178111234718095063097115043341551022465132404431539510177693696.00000000
0.71500000, 0.00500000, 14898740352816534752496937648141174978576855396788411449807009772288666045911292021973614033689563252052817780164930181628296998011936458777969581446645129288173267976192.00000000
0.72500000, 0.00500000, -18650674810438384775374147371080431934548887535304896418675405423306138741109587975460805112491596665859832755827207308274122573831597885611133111664279327022061409271808.00000000
0.73500000, 0.00500000, 20793926949851959720709614667438644449096368308922517856608477662341821892100562116523393759244104788345086318085128967646608149848874344570615402559026555567373704757248.00000000
0.74500000, 0.00500000, -17121535294518046627781937844500771127885718713898180306864759172425712118016981711111697799607657375748524894809393315095659417756835631850380097376569924028477147709440.00000000
0.75500000, 0.00500000, 29578758386473310763636906096005940904472432465459215247450171626553574909288210473313865262282847612242328849220598532296472317024726659404997539811766909326113747501056.00000000
0.76500000, 0.00500000, -35996611724599517441530059287876577497962904706096238612223993254899890874364797416207449085481734301784156712512549932604469661458475344111859302140512237650742419128320.00000000
0.77500000, 0.00500000, 28833529108598261094862051289372914565732694329460375470800051952626550081634503123108230189607701652878180635488748536352116153280993752085851261902831288412558424276992.00000000
0.78500000, 0.00500000, -56740745564374969840547929979623271068533719079990916385987489334042413480281625968620151258543506536900462146621625392263766304611290884186700683439235304142384543039488.00000000
0.79500000, 0.00500000, 82442577220927926536973347872865466646290455222184149235180209183423236245402913890461553999329691668836590379836884684525357797589653846816604913905316189384859761770496.00000000
0.80500000, 0.00500000, -118968226034994747803032528161109911993869447454137681400282999935643642846342342304673242641370800387765972057084433171183275721680136980174582501658700135300029933944832.00000000
0.81500000, 0.00500000, 158498178867973549516732868077180537043753541943465085746187139567412360695323913167520006680574125014678325907446744650712901043414521066433531558012793180798828654100480.00000000
0.82500000, 0.00500000, -209663975689324169901859674536919858892385195042118748168974710207083137567513129803942641979527158991579409663947378799841359004156799565743087713754592399079123550470144.00000000
0.83500000, 0.00500000, 278170445847939097186975686933285078718933754492392257851391160826195918074299844344286338156399836106687332673754700436742767098284163231221465465185648463409586557157376.00000000
0.84500000, 0.00500000, -357121622895833269342390008758289501350456840751274767635296722243801443713566159584575269065887039293928120364384148849787372112583147499467252858736801680505469514285056.00000000
0.85500000, 0.00500000, 441274357005450935074224339905756279692668670757566900256931573051487929846167538891158562280238516243954272236446611017965197746335829290533644525684938606330256094658560.00000000
0.86500000, 0.00500000, -526379177406622687476577664242297528682833080815771267872730205291067418204966955411276002899790009534857890209386306909140962630262040931828033821545440379422243244998656.00000000
0.87500000, 0.00500000, 522397270315041248255105431870889328151431293580605214128162448531503530025892849903068097991322438104117673766729914085398057120721036912480037484351640794914915224649728.00000000
0.88500000, 0.00500000, -600076965085593934780007429865565164079275560189808140239111493468954725606123479917898094231073510075024883874877008522163689946541627700089515070542226006925273534038016.00000000
0.89500000, 0.00500000, 767234731311632487162160900490249541690579049893718755974676397554978590308604190772338476018687529373344612926766250439417646656932231173057882467926517162936376483643392.00000000
0.90500000, 0.00500000, -840747771981462699232432835859311582472450241210505193741113062146332830545439686403515844084454053441501060835920779735015846968550367948920132866233559601133301910208512.00000000
0.91500000, 0.00500000, 895718444797233161867661748878939519892675321146111536307641627307474444285768611976365141302500981113126379318366396620697519547661303631965780546474213081361292124487680.00000000
0.92500000, 0.00500000, -943704958964373158180162094538011268566762951917375458624122808317847709044375501321274693313134419061333177228315045835643870824707309777740086244183511568337235439779840.00000000
0.93500000, 0.00500000, 984100885266093693392447863586919837510262439191171257331094534197400658003945596513186185941028854794711984869220759138829002140865693564897296637437064529311464664596480.00000000
0.94500000, 0.00500000, -1015920505961011271483975893169434150529716340220329045357458646688430174576855973357830796743361970601512321361013067792678740143639074892368399131819977960419128915263488.00000000
0.95500000, 0.00500000, 1035598838879148511391883279068363230299795756650668426516240030219686654378175257039023497095765290016723331091571729835878609973135348821524296946398806258414269398777856.00000000
0.96500000, 0.00500000, -682952205215589092287932358767700611235793207165207902111403303904917391479048840625234261916860559043071368378023324263120420651524233148253385585781657761934964303069184.00000000
0.97500000, 0.00500000, 1017769103686940762579203327358333219758020703013022219048666047135731343816815434847485722168713857375770209754044436038308762949638666668613176893120785607481196520931328.00000000
0.98500000, 0.00500000, -986400531517040765511856054878995470489651177375834475317074953224451457397173943369122841217832650320172204631654508064126470760572641565343201016169642654354744241291264.00000000
0.99500000, 0.00500000, 948768865437904069834163912670203791824671529349317146407525677365369519699866895209984339431475463868346984095663302815951949235069022494710975809689265058615758034042880.00000000
0.00500000, 0.01500000, 916071229392695060359362616484690668998653149532106131650026702137851235898008809433300363530879063998622882058305992172189210946659145719150670849396437375045466037682176.00000000
0.01500000, 0.01500000, -823921401615735619233240697539598583814962941216550254832327583360434720733787804164765538165854613997766016195360611823219868506486474268578541291469780868256072999108608.00000000
0.02500000, 0.01500000, 719725619996512502796438325980163078762188230309470719715478751976566023744843962814059360790928113351277713732651228706727740274067031271416890124042162547572540285386752.00000000
0.03500000, 0.01500000, -610062415120149515553766392916816042897992157620356932133010189176782911977989124715305517057830471353179091374277371458760227460030175597808084768351659407549106277580800.00000000
0.04500000, 0.01500000, 501338525792138397071157133516365109367172235019229114838477032224068104906846891090403924430647670058289618136025099593781220445832706503294089031961416660244125137764352.00000000
0.05500000, 0.01500000, -388397066078435547985246714996998651466788768884655688011949087597960382299777287293384028086521933510224796630627561726291939492937813986533009019160981582583460360355840.00000000
0.06500000, 0.01500000, 281719896308531278475295567871695060950916128514444857616523552018953377648489429442267394118280692370208738348670058125304551203238482216557507107333335490811366417104896.00000000
0.07500000, 0.01500000, -188378028997975963925795093315702432760621927578700180630333982012432078622398070717850071825815409271659726930150159309804802592765585234314166295762939495904169152217088.00000000
0.08500000, 0.01500000, 108092907120164066836948476192300162248717288010215701671305964205863851206921034046667518869940983846098576641567198976275415643433456073454455479709262079323136935854080.00000000
0.09500000, 0.01500000, -37524048994551645183574034493833679577847451408800507143660582147012609280150193446022773979457232298166993864888399327815337067181041110612673743852800159316910415020032.00000000
0.10500000, 0.01500000, -23127232138252503789004798433352380513295545224054171632891106922049886785511691234480745806053892282458613442217642968873283808700222584478916828032705903420248011309056.00000000
0.11500000, 0.01500000, 81229629969238969101896944549568417450830453636497177974351103186098917886578821622315059521544096253622297528799169760762593393864112069029818273949395882413096341340160.00000000
0.12500000, 0.01500000, -130013247780731227506738921757582912670074901916425461967242257470912643499180208813185398627991133209474390557554110474163640377149106208724825842227648668605546282090496.00000000
0.13500000, 0.01500000, 168663892668125509287373648836448032534032030447440331483018167594664169973013952571998073734179911294380486469879925040783206914326814324832248783530718098134511317417984.00000000
0.14500000, 0.01500000, -211801058936666137111175682418911679393716592066467043252382061910514686476237906105119362505436161683370886600305523303832913228397333858317442942230114381277394628509696.00000000
0.15500000, 0.01500000, 245842068417894162325330579195130032688516454082542258467713948385858668687582495333368321796491886346608694743217554859100157436214403194112973375893417426831849008660480.00000000
0.16500000, 0.01500000, -264627539138388364172470897526544053810582016802464778272126151235439636344083234204425132905289329530733279416882696666498911731468870624008300747508783439282411350786048.00000000
0.17500000, 0.01500000, 276018814408457517289075613217867902322921875053695245863802117754946983618871951824959312916450643937438825514961256156380559805227942606796944063386470689512898147909632.00000000
0.18500000, 0.01500000, -282545394506517150259971033660143696133626461138009627152679485851022505348981734728906927072647700231947384537339047784679623035068073892442465580483587372987189800468480.00000000
0.19500000, 0.01500000, 284924914690629372205780628217364483357512017150206680599342805720402129676681627077926797917839769219916109476527953132622950811637459925654470710918272505450932146798592.00000000
0.20500000, 0.01500000, -281478221925660285562640375763828642773541333685064916974874511674942272105605772581791279081959081534842684551882343116382458056674622357794164980082213135524802353692672.00000000
0.21500000, 0.01500000, 264681312629237053341123709697857055566713343113936875047827739373132461033715296658578988148543721168087561716566559042924180620218227892278067972949607667658551589863424.00000000
0.22500000, 0.01500000, -255089930752501641871921040959726927961351247380201420618920532390743736472401648957579338175184133261329836710459956815186088717612891866897221526580238649388655571894272.00000000
0.23500000, 0.01500000, 242752142130105933369863624057169045539461261478891213962847430285479706166792305926761352315401677154430583558245213548553927464622644590855888712982112033313615373139968.00000000
0.24500000, 0.01500000, -226515215906375480168114982427064915586475222493182834530217906463904752290149896638369772145183891508577503253727273704228432368828916718904059420972201514212196490412032.00000000
0.25500000, 0.01500000, 217725256698219025818902364778635788817141063787158200527127781633141559327983315111890548152631278132156988455863524414999638248997742447572992042676048828449113501597696.00000000
0.26500000, 0.01500000, -201235590660416836051311283154747034067397662592723026189209682962158145808243349231420341765268183029700093583649323594623448228117441952375607250778954038896660785922048.00000000
0.27500000, 0.01500000, 187540364783677882405807213341843742441095157180727797343575461943549950327032715286246426423215691186731057920563503595767653334412352482640749309130812030113647339503616.00000000
0.28500000, 0.01500000, -176929825298348152912508479306237942796213339389192087954286578517049327444732969063345814050445270977811482166477956002193199011736188541696445951887938698449119009046528.00000000
0.29500000, 0.01500000, 168595482021197678051076092397193578332400527833882526164431202050001430838041796680848391973185645347459995551017971154183544665550303542386125022812837414440592702701568.00000000
0.30500000, 0.01500000, -163153454727443019815602560174988577973765190276186446708680787642213800705826812471212378397870658983719262220968180566541009590789001500304619230934928781338042550976512.00000000
0.31500000, 0.01500000, 161085348404338786302638931462200933123571593425124773506800210412595395555141922709755587067671562299334682945626795631000844184506177940507267133000198274067967038717952.00000000
0.32500000, 0.01500000, -162604109396644962801977658921184475591319243542241005898732201549036801393138870826686628113947999411382928535858032463710128567869163367002277058034940332313601736966144.00000000
0.33500000, 0.01500000, 168653845741607264577059448176563055579952806521283926664501235026267591101647451279948501595832205609911562770265020962444047889282711078178649095531376422691585717698560.00000000
0.34500000, 0.01500000, -180059744848242281904689672323181778337031643392062189614869418817800421852336264479399341405944107804987169610311823612239236043779092867740715738465839773893904585195520.00000000
0.35500000, 0.01500000, 196119392768342454409334287453438335835322681429231033626248757882445179468305843722548919083280102668064483987005766672335986886691424365926944742162361274125310238916608.00000000
0.36500000, 0.01500000, -216629767919978803615865992585413307709530604862719687192713804038985075633686187725986125717792622154913418845233487572906599144430772959566897475128503900414401490976768.00000000
0.37500000, 0.01500000, 244460896658068983576730450425209407861108851328581831510243402123373289706557423412529510488783918158917878079721892659697811979555467962719645654111890064470881949712384.00000000
0.38500000, 0.01500000, -280888689010810357726183762424432940577200345391151695382614419340496659116402669765759072893775256743673102437862636133585603860885671886878246801624864015920778977476608.00000000
0.39500000, 0.01500000, 324007116260184116607162200275570635403289278880876524854152482524545622379382251810587561042085372128065026636645135512899023069683096866679937237306834249311674349649920.00000000
0.40500000, 0.01500000, -371757699308433915222814254816786174009749459265033878528048929002767765121066863084853477626951640454716111886833432085650073232435455105687765348545488648587160621940736.00000000
0.41500000, 0.01500000, 421125561754666612155416140186002468773176178378263398324232384048789694211058672908122669186609417873749064032711740856863019580588360692981109826505385665417451751342080.00000000
0.42500000, 0.01500000, -469216047970037235770807195644026767428463244578578442811016108628276998541306746473794716726075816289726048683190799500180799390274374294767277998434525038284049427202048.00000000
0.43500000, 0.01500000, 514762584098458488550595822465899008837414844311420746789689913776421433416581666132676523796455976279226859322079280399526902006869390784720751622945498129485892952260608.00000000
0.44500000, 0.01500000, -556407437418686132028302644277903923551658569614966658637258655312834784710952783574679992040382884731756105093699927693737784348270331480974153939434441620830846218928128.00000000