TITLE = "Linear advection equation"
VARIABLES = "x", "y", "sol"
ZONE STRANDID=1, SOLUTIONTIME=6, I=100, J=100, DATAPACKING=POINT
0.00500000, 0.00500000, -365407790611222405958675434490208110313461130896312456141142620683804946826821876493300882754086918760142676868541941637672728218632835146231589100173392463016984448098049868004854235490418142142594852384539553853378017528416954262623728133228392189632492904003424736516396866863104.00000000
0.01500000, 0.00500000, 267263418667153743447002270865681692519001021908345168654088246868015859755022470333967013257097362946872629001008094430948783211297784550439207769838983113615426701061951224697872593484957412644706655721940067451896263666908802933464115264780048678849318950266348982571252836204544.00000000
0.02500000, 0.00500000, -165931880361172995482190516165552549749603152175368868998458730090072812595074824264238874819063052869825533155201620554776434189408307640590745135554998726594307698222244030938567321424061972348238019965279430886484792920662424350699935514080079816626500195345769329099317375401984.00000000
0.03500000, 0.00500000, 125751735648163315629778167187114979846117701278244351450341495252894043441360930368049061896190814994988301434753170369455308041347821386750602536713609470347742715537965564158958414488792390380494028269692018772382231917462200386444813506112690322420677968119012214894025846554624.00000000
0.04500000, 0.00500000, -83687490834584261420097874853579743102303671254492541903720260903649319887921616079728693655935127975687842289528486351005712501032164040360872292106164851433522287557911379677382248931283236485759917888044968029750515836005550815357585088786438414422340468654747819050709460975616.00000000
0.05500000, 0.00500000, 53265171438642818838951097090944416311729397554449361479218789299289625422067481283671575255598421114555442851141759373462348753108914249659195180157173221354965631781005362159897020429973549513830764595064740859263830644354685381742381681118013646404077035957807549180160707133440.00000000
0.06500000, 0.00500000, -35493975656554567249077719721723387790479180282922828916022739244750416364213822031887550442544868156598331309044567296009209119078921449780036094167843442626342582377455800740037520831542747390821316758017458129892503636556118616699867068248994447075969438101353468369838578597888.00000000
0.07500000, 0.00500000, 30042403404291516628344387150341747951496642925222384163018376641535434178610184638973803151291293471231619580219980390196424945347663533167197782023601558649687966918640707817686898605259496405951217725684782662236715480859462284984219305194604322251559252831191059313973472002048.00000000
0.08500000, 0.00500000, -34414930709141600430655952569240083285833991639861994102768713928196105006890168038582626984290108474317265667600648420207646928066682406287339388929019107380843490434875759702230700809341465470756959464235709475150192551239366523958136622462093005287331440451347169398563041968128.00000000
0.09500000, 0.00500000, 46504357718123038927783364221471685268678064413807603005943790489369273682832655681612147706383855915884505116007213837863612108655574020607400188274472955483461428565454213541469574305326056830167548608407045805470139896067131820138130503408184216576893234248435485267672160010240.00000000
0.10500000, 0.00500000, -65413252068096382228157014466866342802678786167713177463034962987479140878504421370611219795087849591494645118365040068067754446801071851787223296156825549493943047946303500440603089250379406927530430896223358337041463662650891388812461036601463445170548026979682345150779796488192.00000000
0.11500000, 0.00500000, 90741842468618303498867278505841723922902375848284782138096227884747574648946526107000052199799901211754654071164400606842960999980386796532203421540414959979948108361229438798270451141722668215409490328302587049755612522777268286199921889159770719905110292079040822941385890988032.00000000
0.12500000, 0.00500000, -119502571734101070929120092170006088986280474997861589682131547452444159928400196966070906703927770949996474932114487821414791240642114250115047186277844154301648875978433329725152552984714637906615041778797940049729336316337235638989642800249137424500532653046725873323180101206016.00000000
0.13500000, 0.00500000, 145799466609015147020619121622444837023663405702583360205880338483647380736018581536334433195036382053930997992510069675669186041814393109470190563936684265797214735610369585064169307108576784169033770641945145201576742128250932810801189143312993337056854274832267549374904524603392.00000000
0.14500000, 0.00500000, -168665290257011610211444194438100363045802301550197398625552326762328998332775376826026188169437819726554669280203961304203554590732631487050195234302895077374494312684599415340711867581353174258874692525996919688042049107500632356149549257581224169221702904314465522049778374934528.00000000
0.15500000, 0.00500000, 192481013745571792998035860165916935784877785490782998962196994695869962809240155070016711812398498505364106403935119616384935159424416147229778555860987608560186720880613412277534388559248139403364968363136041933014350717405264503179098620208144641873541756016520763746486711222272.00000000
0.16500000, 0.00500000, -216718352097931201850899592519436014075539042995446517284488565085154057645194645880516681429832008837608318124891253292061149807964925280647563943197542167480944335305939047154853682026494970412024912742030282121895207790076789697595598104033772047396629215385684680993795368550400.00000000
0.17500000, 0.00500000, 238734929209550751560230611336968548288314454632475361892256522847236433250084498176024412156272810773786679666141022451998882732447146623303205459101201294205219505942253882105170013035332867491727670517525865622975129316061526450077782218324435879747650959925684918504686740307968.00000000
0.18500000, 0.00500000, -260275586994830071140611263865313668585544524703324098635828204177028444852298285214028035578418202540024858737966016798474849488562513174227919859755410541629097973885221747336728675034299253238399793038820187646697098826218951376351016357520220753465953483314222706814208503185408.00000000
0.19500000, 0.00500000, 280930826076859835000919850334268746719664593431862792628778521268438787495299127921535259992298039883749065201851902173224512662107208342415418753602374871907315198796114831234879544229747302159344268502352564522343101314392025015224192723695440458512625886822070524921169563353088.00000000
0.20500000, 0.00500000, -298286382659508686378591400393912147196255280915580122722988720883167262077408049186433790284447089220938410991381293067554717278165843127379208836885600233974133153213475863179356091550963385652494850907025105463627318809306179867363250961232060795029525286735888879305838248853504.00000000
0.21500000, 0.00500000, 312604180101281810225359578843680746768860140735113781006304729699002642606008208531573661697455377588085279642908570106636138066384128298134219956347678190676320313565780877339410749767597309522199786429788982172938418946357152337438876651280678209476101979994714539742310218858496.00000000
0.22500000, 0.00500000, -324336196244404493144539144195840121876934851960597611575447556956879057638569469666589969666674877194078668056514243352266608014916163259318511797390480937891392855548316761726250070106608167741212529868435834024152493720156804498983248998412936018458006069565871033200066305196032.00000000
0.23500000, 0.00500000, 331789129917304963760663077394525394346933374302007526322943240543495173075205803629439305814347632324522008165121670825736114935691312500786058697236306028634511510703759669375349002503160895072158578947035614244281445130141032099035374746324229375485302162855889391866263499702272.00000000
0.24500000, 0.00500000, -333101485450816522530923334166247295594763012226666584867871691537332167484626378469288491466279398437669209048787681280373373260546439093667299859858406525936477087132996879787922988165873124193912130633783175842296900745070757959681227320670698122632114875540152787772509358391296.00000000
0.25500000, 0.00500000, 330073109193291912199573354773424994463907062437913908774574492285097413270425486705924212406634188871267955015694565500964460234362694751993149125115668026137586639789069019563535380595048934517290439991866698041485426133569878905194136295640937917753187449397974158247149998964736.00000000
0.26500000, 0.00500000, -326396955790234428088114721807899683764935639336848755490370740226811121229446834369055070738551828025461205702383281137128486716243697556103666937422698904730554581526326830702482710512048851237573507777687889391759387253047819568478113380534459547188058119886204936395430152896512.00000000
0.27500000, 0.00500000, 322975475683065929813776061705007684880565624548003706650388383446848929910153045609382565958667089392746514897544711911215384599684652877655790414137928140315335010105311248532495902741812347853618586110620345910468505898481219872160068136866177985502764681175482774429687003217920.00000000
0.28500000, 0.00500000, -319061793819975341677777497077537647969320948707525884347941527546272099338443060989572364668924175751681290150546428267847304057261112219140094689765968089215500758395263421460986994668311139665721755054051095025869949007062808807670814153402994100442276030796728785329333787951104.00000000
0.29500000, 0.00500000, 314801758158546760960516393711444233051040965414932759918617534930771493343487434707158617607332879877990799294896133314124388352773898866487520107000783362288734177403202852168104361668199922193349942466655834330750630462870484864634327633641714596966364692574142913293293650444288.00000000
0.30500000, 0.00500000, -311025506727409618882987426576326729387520847533051409275944202262830376931973392759367160064598411315117263711529728927228907983596196675716977291866668005899424932389481823633661391067910810782799514186760437138623698705771140987283510372205740183867987709300288025303974559088640.00000000
0.31500000, 0.00500000, 308726709747945364339441606562102525200536251101978181887407538813948356434006210446287457205520543819987820144257589583010997179832913683612616719049236104704865256052034691427377502401092430265100019555627807576334325449208143193488462735478758718931782238027089874682808123785216.00000000
0.32500000, 0.00500000, -307733807626234562191034246159525352072688720828690573761602218759821011136334760321282981087561904630446844073970252735341358683340518042108774359077451443392734028352981894807314870691669537798227087488349948868707737979535413625661559909823053321073028284627136967710422675226624.00000000
0.33500000, 0.00500000, 306302730491719424960656746202796926089164005635188092180045782310183290837383786796866574612592803722290014721610669738214469372194142467328738318021679256287837472274065501409452696891211514238178244048380872658036385339821514748624596829758063502239649853011919792352206176387072.00000000
0.34500000, 0.00500000, -302738751949939074008023775651707804865370331762040796788349105719759401846188005176691870780315607926292000811889658673674904496201189880184245222667761052470608331934944819156553013243789599876401559649251192487347970450451742620562869451470803989130492402853887710619025195139072.00000000
0.35500000, 0.00500000, 296191843201380587307263504186830230032169465060449810993348716765711886962492832822265148426155579835894746764635237924132666252393005080169894554199286707593295351690255566716011023150037384060035145635027583046293960638932560254895921590892519590605204777731552303324199391330304.00000000
0.36500000, 0.00500000, -285892963943662764017897504901575995690670362054979108686118722937624849357092650743882241705994014985660561142361654042837435446069327101181028209097416340877260104762889573642659299615903815919246537413727865491963854581349609553072863154797798324087445617461282668013287265796096.00000000
0.37500000, 0.00500000, 270194820369033711786223343812455676141581474043852857711942039930548732480771962841692117075568069264634571724182714477667934977517846320659009671554818879208586856644879605183557758765637153062837751364891083384842782692702472347131515441615601216192414187094578632612212094533632.00000000
0.38500000, 0.00500000, -247294686047571150198404243775938576344116887198977904885089481916929170827228917911020519140234925999957024262574151501565438054549894691645460327248015769713839933424641992444399222122556228906969515598825962963069816921187657919744385408280183381088417015838248517826291502678016.00000000
0.39500000, 0.00500000, 216168140667653846659242421767570799742623319677417923815429561831517141013202537084749812970888981592039452420030909842573232860417333718440839075845487572303626492745006982409206758362105661434887195946143636848000834043197924115148971347741798591082306196239712130868686557806592.00000000
0.40500000, 0.00500000, -176275818316156294543752574192828248517966245640602331690662805408121037150340291388785314187810322094528822999733196898584766697070599545411072219772054400082044071127550356000332477472128809352925113496258818535721926875027206863046693580592661453054507992500656353716538815021056.00000000
0.41500000, 0.00500000, 127388452409123969344961584452133969571589855021774322558786281069566872305447099907740638913731535005166531672872638095848316070301011387479463657139714162840783371901353945738225697331621397010085084947195973676116319167641934305755169290915997975393882617202759931387668938620928.00000000
0.42500000, 0.00500000, -69095321249701762496427203230323807780581784660101456068464113028674070456374860644377489032582127576250653649676610574465356152046459884749136031234141405895115451440726142631102548473476860881984882029615573963817023448811906746902402737147944727496884571893331126760925009281024.00000000
0.43500000, 0.00500000, 455934635124969936248123226126973001647594457339562387278082584395660124072742480559046158337722979910216494158650200569974896202702029038461631827075933791850163598450905713207493994256411146912562725325702931467729813903330487304743772651019543578353272433824022367151125954560.00000000
0.44500000, 0.00500000, 79219833752390034386732324055325150783040143529709666196084107536955392587796570926138187933569165705666044373244325416290365526013462722319759655985536452472384598265376427988351803868275707061212836018822761115930560609102178813253056410586605441990314091614596422146563296460800.00000000
0.45500000, 0.00500000, -169713545734119511357216120857364413427537971554250391025367291527852312411251777786770098451838599551304695538801594447941975224856640816826389564490431128729115840899499955394714046083444657597321587578435900868924589637725642933232661185657960764923576465442525295734917322244096.00000000
0.46500000, 0.00500000, 270985876891446883675077652993497756426209173175524636852002495796492844209671532952061114773483478633423612693463177231389957907374234653949530733784580877059410835747504196960104828362459474572161458662212900790826359223890889895305746828191925878091175032846896983538547006898176.00000000
0.47500000, 0.00500000, -385141313018144521585477650405104642369830408394207572827792283621843400887110045547474778880804934486258336363873338166718162390862857338626231047389413626303698882407689833165594097906992075460914687637609410707471826013347503397367608490301030711252556143235366872147747932209152.00000000
0.48500000, 0.00500000, 469359007606798637885743656602500159417935019249914154437993873713333936609396044162641909955599798346629427710542552189353466795978871147004701071292273764736983552094382289465965412507712763202303288598226504378456930814898345207836785327361008366359744943842052721468270140456960.00000000
0.49500000, 0.00500000, -621001565521037409640532097530196770818274409962912413494584377975639430134305975053936693014753358835462387482170798157886612464178725014870801439378221075087945622639866711548477199456965854454659873835014130389007748976122770330191612907869936440353561206542958713659892166557696.00000000
0.50500000, 0.00500000, 837465378208369203497979185506077167276242237767376003569501657335797152996648637010247520353307712237131841102446478144114819852550777429026373259940949513564414701591399526322618869923112704401359340775005057132126908771489932699420689209035240826725680046003309248751513146228736.00000000
0.51500000, 0.00500000, -1016714468795554140361924436029294256890477546051857034949750867910903267751369468588044897143655879043737959936854905911447480674406893261256112761825547186134919307810661373095349163458574151187491383261194763838283136263121241414673203685219277078051033854733781483489640285470720.00000000
0.52500000, 0.00500000, 1197343899965246117156119161477974640641515850319100791686400698051151779537407596990111182228841636388853077956632470736021211179250563475731799162300882932196480519575388783532328111773954206868890480578698608431365449090519143067703972913252169675980146074697130465311061782298624.00000000
0.53500000, 0.00500000, -1360765788623154657728167190032295626641432623006137924459671659052764762003987215120041666368606084870431953316149205965858796766402820277026097197833553674950382082548708743660817295304159266166508933250947948138508890612594030862093410479530881161223615797944074913805098903666688.00000000
0.54500000, 0.00500000, 1488402238879271065019210984747558444041970314141413816546905138604163206892917910538705042163871727395590867911705233348134493312902581426628121963551585983859251302140444833426004149198356057130285371428174927088759212955703024268483955474419018664975444012273817382960057613811712.00000000
0.55500000, 0.00500000, -1607383405186561729000717891010780338210935996474711380519127890699601009334715756533877317897289254411480445387946554771258803032500656930940256057779401909759720352925799789347238531648728255308372905123750177977875130769494084823980806280464732585371545976516134097180804163567616.00000000
0.56500000, 0.00500000, 1752983450454244129813429350384662301277159220567705293334997172201979476659666671449591444025503689334890024339553734005686278307332517029052055581322529231584881766734728758242229288911688205579916249001567728557966825257105535596789983718989831902799819266207236891766419391250432.00000000
0.57500000, 0.00500000, -1899581009331586556437489560387011497617685620381751650735048447929925906755140984034761661812339525752476745462998880966177180550571204132548270517443012364597295333039616843244737955974736893728271395824321876718169191319317351215891304357890727141117299460641568181620425862676480.00000000
0.58500000, 0.00500000, 2010711970969873439215209232138316405057794827277600407257193741648846598958554555779593784573236909175908797994673261512301705906203881094324992708796752808867238078114542354093424008186025424697557414765954057197856836674194988224228513366161854068541740944793831669826896531554304.00000000
0.59500000, 0.00500000, -2081252006215668625081485799910475918435904104215657659408584474200704530416409116925600023044279744017319168102642384701779480670326632294625793175791930974362471150459571605061819311633541142451126817359104892647154619282495304181568020717046668354674636577653896791185771856920576.00000000
0.60500000, 0.00500000, 2110349243273269436985056584122589721957709824629386338781366629373655395197614051749041183453601883168989814110303348659792906048108264646512136074796401053989075105803723740295956504458435247219065718236799787384764840795069294297489521379865472486093994794366751736080687473623040.00000000
0.61500000, 0.00500000, -2105013870835793603122441809651731361506412084867688226206709302652987464609348029214755070825499438720277343327580125109796266020451529684425920863196752441217095622190100641282964905860670350072161880346774440476413763781487518339088780963386682693822461379323475117292232055455744.00000000
0.62500000, 0.00500000, 2063662915176249661410790010876335735885418458725521131238499066248923960656828434042587152600438919237455153334754658044250028815677628061181561528587988165469325474606304941801579381277633648782067152579944690177857382459030685089576161850798631694251397432904302281959492693262336.00000000
0.63500000, 0.00500000, -2014259011351879056020382511993013520604615768224345626744215887178739073407992367643110386875341857796210613225781415609290472035063525253510702381290428315242354533105196786655984437972057724901435657492846610632839635973097793453891842777527695597778330877034626726853795278487552.00000000
0.64500000, 0.00500000, 1984062179752949836108458037631050465031499975078437895612978060634653462057539305458184109184509985262653209781272278201179697065041324837731225404045803401241954629583927051642497897128828300353645516018879745269408396131193126334994593406242774883052031862950807517181046614392832.00000000
0.65500000, 0.00500000, -1928458376519809071093242176221625250296166519975419661819805430709336608713239567026498282878328460613880757540807245418839482336156054677466598331315948579134289839961749964279712081594931945671567708305268933202812166259717590551118314278654523653295933760902841441804729077202944.00000000
0.66500000, 0.00500000, 1810566661899584144194651944504870421932619141194620416715935946569980280483468721981501436900999814890325165121378211587665007493235037077324844619686303490887552905277997558486526631666253928279378273398444374768540767087139358215872349511825880917931907962774768072894120560951296.00000000
0.67500000, 0.00500000, -1649040592049463618709628739104466754505410929176423640568900447630437582359826958399905666054586701028596449563424372856451174225352461335884657339164221315767100275582993494791624234843528404921220134666970782057226393063124586219083820756822567621450905993970974342356273125654528.00000000
0.68500000, 0.00500000, 1489598427150924110638092980578730812463413946857272869980078922104055558673742385089707369434019483608935629316900261608297422549596922784502799867651964611793354701187586829767252601902914429252436350855059256365058555547044333356265704760311936047696028576234617627584866627354624.00000000
0.69500000, 0.00500000, -1328716228428526918675084408794450757759140905499526538574996513472091973465370718377874678005657588600899325958794356158301154321985035215339847305663308010528015822930031023121521386293861286561476021817721411713823805714473726024723040375268009021456842524320776026835478391029760.00000000
0.70500000, 0.00500000, 1128423073988050545229540367846396172143199307090564821689592810125721349607097389405264847482691561995018542652741778545475580305364396290727773619437444441793039855811310779892868993292259680050407792197936311286881809391575668780089001010704916471388667615615817212624725610594304.00000000
0.71500000, 0.00500000, -905783108944378075294590997976396945243199374330984242718273605522449545275530837936345683355846376243534781761031365348159280057174877590466128895109749255811854832866709427504032478453823453016744213682872353202715636502427765193359579166423746960189760113428002840392481651032064.00000000
0.72500000, 0.00500000, 686488458367668212016887153623693679002816904871103517183092904619458601431772406616018680006155504179132965052624827573265833383616969413722466063559072016244817060537195158625793753694457226152847862910440415826473315538498733602946359958004665492156532229901038483965721626804224.00000000
0.73500000, 0.00500000, -467953238434737159323420028807155497195151793547037317812947129464129504888491199126627625635053155026096124306936770101563714777671872766285372775079488251118562725412804319990038316903925391345876421893559603823175107027460705806875177081921920615824764971958133644775715653025792.00000000
0.74500000, 0.00500000, 242313850783959748436274838895421101309655792237409257362795326272615843797011688934614096658066267205368181849954977472120559138361462173523520824327479248125255845191810393126380524660867744320569985382137455752558568207401339750794616154925453932772476685466271649197751663591424.00000000
0.75500000, 0.00500000, -7989503891232364533831038456982548936831827576128031829546121104597565049191480015079706965845858635604292274077190040209262376693028156253485562504316960807559074918494339735166166343717057720265383172128606883112670967691062159091534857130260095023226446342082891275498183196672.00000000
0.76500000, 0.00500000, -223292939086621490390471750372434411087871312633350372307343407470835030949900288472653466182701465456987359423551742508762024105875270412987992694241785333557977700575984775817863529604490528039953841085075684561141648598810882805709605340518269275766241587491383083869675397840896.00000000
0.77500000, 0.00500000, 368047580628341203107269695752770805614883492298297385297811835817572175325568383132510385314674277775807728396859623539075326446537612201901944377013790230655145579520874190134904708927346772033774559011139847567852389095391414488638663397585484614526897161962825249515009719926784.00000000
0.78500000, 0.00500000, -595836762426633867765842011568453675077872218978804211705762861927140617807682575993256990724607852727329200719234878232712343842669444325644271688402080322390317026168010346800841750654071506604143647759512627193112660380204363783687819306306601276114001842436086997215461075058688.00000000
0.79500000, 0.00500000, 895360782096650658526014623596247939932195860018918178511726763919329700971249206303936997735721289967659521651303558901614297028708634907506108797286985464240259779522316037313434825971102018589801474985282060290992415398417439333572012536815291675601500730646648347775940335501312.00000000
0.80500000, 0.00500000, -1081638712639533600727960755862962929174538060047082030461241604189563027435319322033997413087319437265278024178498589453177845089043623629572898734392529439139281937520842865359105569369962004619836853381021477771923660821657503395958656033119972769003419044016011413592679389331456.00000000
0.81500000, 0.00500000, 1231384858307787415525775103006005862199181132904635739839141590549944414876349871485272488134700937743702321474194056683232593456724978878940896883337622849064717945537689824569530700700852752224918137716671675634887425517119707827409235829890335543203106237051292084255081495527424.00000000
0.82500000, 0.00500000, -1333658226327589383011246340274291249214493296825584388873069071901254597278956000783716244893084413685379659972501793047874507909444024958394962484610462350887075565689437383518363414690338405968162781510025301040168937316224275301565562007120869025768736517183314165375514125008896.00000000
0.83500000, 0.00500000, 1385385753712443870879802461174141703089000540882253628656075065342955375633209490314062642847528906228875895284318427278474814592356887270134411243972233333768194719584349110281134233190683425580455551674427727705107507139400117802838608609452569258266737324420074605150645063254016.00000000
0.84500000, 0.00500000, -1391155163092924795492090073265714782588930501908520150973873216181297547463692592860550901705299940653866102520903488248515230952727769153169708354480517879542185750574185458967801623765485848494256048368863664493948629939941192465223053388618224170856703807108519522548450630565888.00000000
0.85500000, 0.00500000, 1359072900671036911877429579721969067579780356466523273625091063733274755255207195669810245407706889817908743495231190500845409815910379064514850723521663209410398327804787087916091211086501201550077080624580454836422069445982228328749156663489178610494356772346206120177964255543296.00000000
0.86500000, 0.00500000, -1401113344361055056957083517489825910717668442911758398641323362824601578698721625112207609380973966276533186488604988930832245641364530937810991621775040696182292990676281118487719474361628281304350762822690449824119416122868750602424513932164019866756694320613804382756529038688256.00000000
0.87500000, 0.00500000, 1513424036842144047538949994495922546811052615014134433486407810310146330881096254350287595301124956609703143566695689891119219399167326375288221718611324799819905220191192749309349498394423413984440036102201761317004132072404422213107242002579763000317542404789848702832948866449408.00000000
0.88500000, 0.00500000, -1535254717013677651675927730407089122281697230079116340034516087025485767852062545228134938683382939090147079342093581228924512478970276300437924311340773089273998030539227820217694130406012126106885837289363080855292517405992143814303802459361354797043052471576427502662037801009152.00000000
0.89500000, 0.00500000, 1468650066082162738706791101016561666590053984819725511709674078738046593724020977557947150232235031970447746640178489340085395360588020357901956889710570238627075827799443430597136383354196152937776730882758851183214445772536234409429094745474533465797890361622877753627460912545792.00000000
0.90500000, 0.00500000, -1387283116930698110483071593193872842694130575455658035354731292660300755835457691621612055964868305501112036454639650604400521073977196673207017529916400593774836532756980033064665640952245186191896901629342515851561256937869659827411806079008665069244705113244096578978509662191616.00000000
0.91500000, 0.00500000, 1290296811645986088972327686097996613058606504758017353111093579181670142573389657921393950734634228463687729793174680599710109552591970241934326600054524531147974798039413430225962909154458786510464226001653553991280835055723450790830957163137819135684343823158835539318704846143488.00000000
0.92500000, 0.00500000, -1178243272217826123559101995605669104027579267846357902300845494314817807111823007222837747126707898026062670344374927551513832309732973099226236759008737768514465103307338496426199739109141353955562358326999395320502501542975864752027052393336504208996188929130453905733205075427328.00000000
0.93500000, 0.00500000, 1083475920073004235225018833377352974953192445247109544516340466428984996938819164124735949643398391240036704442438787477669323174796998925168098007919230912815949009723886276535721928536674837185550347353602060955208865250028210609074401325716348780969021312564531246784207279620096.00000000