TITLE = "Linear advection equation"
VARIABLES = "x", "y", "sol"
ZONE STRANDID=1, SOLUTIONTIME=2, I=100, J=100, DATAPACKING=POINT
0.00500000, 0.00500000, -1986639922712675243294003851404290953901660530988729496520011060304007868669214578442240.00000000
0.01500000, 0.00500000, 2567370499229131257461420318982798157482788929938139768803724639476201363851675850244096.00000000
0.02500000, 0.00500000, -3329253268754565856993639219039164097032117067498014380392585227571504051438078706843648.00000000
0.03500000, 0.00500000, 4377853214792875923533381712248020811849910079983611604875593458653907802170272547602432.00000000
0.04500000, 0.00500000, -5593574986827531475801269633072569787978067260255371800834664978279850604547747904225280.00000000
0.05500000, 0.00500000, 7084726061029415970314138638717828712693830097713974295342339802214980518906721682325504.00000000
0.06500000, 0.00500000, -9183750216390090156416623179011720515843659662160517533513406201472143670249211981463552.00000000
0.07500000, 0.00500000, 11442818657303525116909303219964658937186938639420883718859753015035981831575137570258944.00000000
0.08500000, 0.00500000, -14134842600196049793100140156057102606876540044648211788946332522169051094736627770064896.00000000
0.09500000, 0.00500000, 17263384527259377610449492325072092776856520436600225330925654647776409907466146120990720.00000000
0.10500000, 0.00500000, -20830535694809851180026604157701803714357204902590144596052143542365148826174168198283264.00000000
0.11500000, 0.00500000, 24761489653342282263421088994910826292719719226869162865838127524682764441458184382578688.00000000
0.12500000, 0.00500000, -29166183716849715332661355524488889366575976797927677911378482086781095384157144867667968.00000000
0.13500000, 0.00500000, 34886251396910436374249552782695572635759502578138858205169298562994881918489797630885888.00000000
0.14500000, 0.00500000, -43653372832936691310111888457571944353690587760744451049915777589821398084947351225499648.00000000
0.15500000, 0.00500000, 54793715197681828227913273391098302596591687583626152618522097526492164707026665878847488.00000000
0.16500000, 0.00500000, -66743613887191737444122043829035049382931057843491879450337569018331188964052632747376640.00000000
0.17500000, 0.00500000, 99351126402099695419155885418768835920216187344609672781840297334626309960234253735165952.00000000
0.18500000, 0.00500000, -146689378681016340281374892921692086039872666285288600311051455913557171910824907717476352.00000000
0.19500000, 0.00500000, 225367700834020055418247051292212490477059657027820469594379864407847783032376411503460352.00000000
0.20500000, 0.00500000, -373359011446668830341257820118298406024648877942440849705213458581499404647811378338332672.00000000
0.21500000, 0.00500000, 574698591348133553076253200898031647501168280763467051500390790727353924770384754249826304.00000000
0.22500000, 0.00500000, -858594418639123393130996553109281459738720531163018935740262264875037542533016781794050048.00000000
0.23500000, 0.00500000, 1272212278357186930270450039947705324035126978003292102772360173779617933430655776687390720.00000000
0.24500000, 0.00500000, -1900346797463161099885971166462488755977568547041891446568910863298438439837741213892476928.00000000
0.25500000, 0.00500000, 2756742639714913792764150398847780985977791808668553611756861220668521432471651639122460672.00000000
0.26500000, 0.00500000, -3778197112989326183783351014845886414742526005328021351534582805065146736957331515207843840.00000000
0.27500000, 0.00500000, 4922870291007653782359529359503066168422771111018330793866608905283146354457037281509244928.00000000
0.28500000, 0.00500000, -6202745632871192837647973649283275544337202228573866879803351294899798236286710486648487936.00000000
0.29500000, 0.00500000, 7682578115188834950652443039653705255701610406373252779783746580544920105930185050542833664.00000000
0.30500000, 0.00500000, -9491734363302291675662084393926360535398787057072744554211777194028592713608885420209209344.00000000
0.31500000, 0.00500000, 11815926645237219418698337055078244914524700272353308374350512293349857779614467250095915008.00000000
0.32500000, 0.00500000, -14823868666780518160809499708945586720733754416879139988617107979869045184128781699847815168.00000000
0.33500000, 0.00500000, 18460185931516179127554736749644444674614462760489333003401526853265463870554518903859445760.00000000
0.34500000, 0.00500000, -20862866510832663384474545301308769866921684694675389414911856094235137880408889478554320896.00000000
0.35500000, 0.00500000, 23942766702390005560524861340553647400307353636899831447535445941262481669893520467066617856.00000000
0.36500000, 0.00500000, -28632048752748841309698461830438955334763064284169076849617865758979132038071033452537315328.00000000
0.37500000, 0.00500000, 33167215665684953128076834261989022755542774441151170812548215501130274551254445445714280448.00000000
0.38500000, 0.00500000, -35694424857198375792467451825053437108366842708336684299808199457888816738815630960219914240.00000000
0.39500000, 0.00500000, 37563042759528374269694279487420706780507897405545129135180424481692799725212875260849815552.00000000
0.40500000, 0.00500000, -38771143082904064094628416895532215886260833357110959253382286657936052682152734394062733312.00000000
0.41500000, 0.00500000, 39077223535378790584763247222692412217100122910506545131308746354668709499582022287116730368.00000000
0.42500000, 0.00500000, -38273970993255691110986412276421144867490774205835405972032484015350443484847073767762952192.00000000
0.43500000, 0.00500000, 36385645656096689202075144913164590383991171935685603001663791027212933184318182463505432576.00000000
0.44500000, 0.00500000, -33637035816060618244064002579677816211417093632385638624477766682768054868447476411539652608.00000000
0.45500000, 0.00500000, 30306260259689588886551361902565447920389027368945665894313155100883423389687400599769841664.00000000
0.46500000, 0.00500000, -26672705215775993512652723214786084280753923112414869967057671515978245238513669965877346304.00000000
0.47500000, 0.00500000, 22946899336713430141981032010270255498894471353168453624203998135471042398885820744813510656.00000000
0.48500000, 0.00500000, -19203336904965683655515754391626627283416731173294947427477701506245060019545427283588153344.00000000
0.49500000, 0.00500000, 15401745084851578948271824986591321504194259084248196050339725608605669461635007972858920960.00000000
0.50500000, 0.00500000, -11432734145868569977957278240615292097578435858087600957927006427161199574996748874022912000.00000000
0.51500000, 0.00500000, 7227712698489805023472119116529612547520236874310388045874359338366995070199419754107633664.00000000
0.52500000, 0.00500000, -2838821968471334188937582502244076884927075847823769742987251312210770701966343879490797568.00000000
0.53500000, 0.00500000, -1590519456801645253522111780933446466782657396165896412381410562805254107182557245906878464.00000000
0.54500000, 0.00500000, 5878673978875145680942148112324377837952162506133460853742351452656097825126836501426995200.00000000
0.55500000, 0.00500000, -9821567365123898771507251395332661672370944890938443487382332131474253519100058224465805312.00000000
0.56500000, 0.00500000, 13223269710655072953910692661960970059760730260509865898854263168578557327024348540228861952.00000000
0.57500000, 0.00500000, -15964777808657433552775882022959935574002865239453967551170598731682492849716032943551414272.00000000
0.58500000, 0.00500000, 17991860422909223832576622070857146985592262497955428322860962481414870964461722678046228480.00000000
0.59500000, 0.00500000, -19212245322389015187267414164965422571272123169288051408161257497563404330382424279575691264.00000000
0.60500000, 0.00500000, 19495444045281997751652585430586083696433522150993401900360052107169465173467197287874691072.00000000
0.61500000, 0.00500000, -18829201310186512233483755710557276290504552941591188920985825984626560557800424897609990144.00000000
0.62500000, 0.00500000, 17415179447485397927257818253553660661390654651571546606863447521769923633414155230534172672.00000000
0.63500000, 0.00500000, -15533606464155974241125007231618616810983448365897865318608093236719719799159148561395875840.00000000
0.64500000, 0.00500000, 13375088848173288807958554406874132218250321953126577292412957553043321295747312599311581184.00000000
0.65500000, 0.00500000, -11078061942137699550708688478117312165330476666175843996519159291312547874295344766755274752.00000000
0.66500000, 0.00500000, 8813969615796278936970033788284885095361081829832804112270953878419372229651827177604251648.00000000
0.67500000, 0.00500000, -6738599404680378384369811316861932129318390788021446952911672317290756685935933271394222080.00000000
0.68500000, 0.00500000, 4925961402067065221924000235830664299524296373397160856736277161509204873715390843250016256.00000000
0.69500000, 0.00500000, -3390842471732380332520397864527462242378148251756856407725638717549690092005704679712358400.00000000
0.70500000, 0.00500000, 2134773303639775497359193984090776254718482212886576743039415028251037539022190117788844032.00000000
0.71500000, 0.00500000, -1148367657993002881311879236058431843610291842761982234541396035134562745443995955692044288.00000000
0.72500000, 0.00500000, 403431827856634478502011933544345471540791825669203812932488410782360376338158381885816832.00000000
0.73500000, 0.00500000, 137469632421045891962271321146241278722672517690316101379337948013336550875655705907429376.00000000
0.74500000, 0.00500000, -512892839291867910267672764961201809116714615697733342330429094428654193114634087840088064.00000000
0.75500000, 0.00500000, 759224031310474117003100386415258600278539584128986549931353872732840051816055693199278080.00000000
0.76500000, 0.00500000, -906174063672489836266474252143197904599796072533978394231753349984182048292948985994280960.00000000
0.77500000, 0.00500000, 975614891592246305439869221500230647785479384210411437084838891904212300811466630907297792.00000000
0.78500000, 0.00500000, -983029530675633665975167907247413191330591254536643979480913809902615594636254595937992704.00000000
0.79500000, 0.00500000, 940374375335669322823736627502774613055286708000770204613208001877397189326612333005373440.00000000
0.80500000, 0.00500000, -859358913327445060572739948342511220224706711346445193498065501821896576385682800000368640.00000000
0.81500000, 0.00500000, 752552204484587020758857793563223830891928728973132960880086149039390022259287271871086592.00000000
0.82500000, 0.00500000, -629241881467496221980859554514462064282988631632666487160463018989240393062158734951710720.00000000
0.83500000, 0.00500000, 502338701490353341649134492194139295779208709240740998207246102447759565129309269537062912.00000000
0.84500000, 0.00500000, -384993878977281829734268327022226438234762452304946285610940696474304656882673988344479744.00000000
0.85500000, 0.00500000, 213729568111206872291514149572282798344874496670089715593738710521891673378405553178411008.00000000
0.86500000, 0.00500000, -221576951214783954170926874311897283958236321263430431003760393049168481915994480243113984.00000000
0.87500000, 0.00500000, 164200457820335345012020895904634073919816957004637271560471772828972341638702854177816576.00000000
0.88500000, 0.00500000, -113016775752998374281499851304779003271517425670538229896061035166250357900539265380515840.00000000
0.89500000, 0.00500000, 75285782164216970144184736521109499429630335033829809129453230579876331354103045270011904.00000000
0.90500000, 0.00500000, -48835779735789868603321908219602548932956159581095559217639408971859017273263947161534464.00000000
0.91500000, 0.00500000, 30508569851051200424300208754644597801199165955052122938600421097650681427277034326851584.00000000
0.92500000, 0.00500000, -18198604674678326365049456663180569423275856703047645785788762608033858690627646005444608.00000000
0.93500000, 0.00500000, 10858223077921860593159710728239642901439495663982748430455664229634488385404187520794624.00000000
0.94500000, 0.00500000, -6453502575423139526493911121851152766413558379934864859610605111483621612466649958449152.00000000
0.95500000, 0.00500000, 3670336470913910565435310940005395734275878699190474662499905857918391762589551582773248.00000000
0.96500000, 0.00500000, -2183239800141526686728381215160267869581927480527750640148668200411833613814872089296896.00000000
0.97500000, 0.00500000, 1517711750161100941548616491207367132446523188361481325637438579831166820166853791318016.00000000
0.98500000, 0.00500000, -1387160595257161914652779006225107270555670929696312950239351608276531387881148897034240.00000000
0.99500000, 0.00500000, 1592151078092155090922518421957248757815047421390653861800157962470405403545739055857664.00000000
0.00500000, 0.01500000, 2801314540924243497549306265050003961791694663222545648871531339313247538773183648759808.00000000
0.01500000, 0.01500000, -3695864884080033074653573664375271404927305007495166741265143300038071776504802703310848.00000000
0.02500000, 0.01500000, 4843293681060377923254472650680319106017161508699590640472638527895476612549957260410880.00000000
0.03500000, 0.01500000, -6299514917710183579478300870189393719864751439625448242300385226289928260081267211501568.00000000
0.04500000, 0.01500000, 8012374531592582446594661163640814500876777924031289246693138845189202520971337434923008.00000000
0.05500000, 0.01500000, -10104062243404672780001471229558982816318046678654882725084127163109606119890362891763712.00000000
0.06500000, 0.01500000, 12771667665956566088774262495348905036185168562998706313941550479551083247571521192853504.00000000
0.07500000, 0.01500000, -15999402597024204306755421925790706992488539598012013319223747707252841004025001086550016.00000000
0.08500000, 0.01500000, 19670343486227495899649115595248002053326928212985112346877183874552094315419158710321152.00000000
0.09500000, 0.01500000, -23648824272078276987856729233173123949647960015583595295590697433692814961883616261439488.00000000
0.10500000, 0.01500000, 27719834175932460121292151552746925663869547971647329597426143659367403168937323612078080.00000000
0.11500000, 0.01500000, -31682481337507764190769114173864032803291523540543625598848936155647724555290086343704576.00000000
0.12500000, 0.01500000, 35734077930053934695507960976124935922075508786189273171767594246045295510820402912821248.00000000
0.13500000, 0.01500000, -40746362031657936650372138917975452803424155722498506633057481802648512205513502901665792.00000000
0.14500000, 0.01500000, 48145303799486261996649006694271503924804245527802371260402272084484233344420384969064448.00000000
0.15500000, 0.01500000, -59681436045670647021391666072884971591388762740143341954854299697247444676186302612242432.00000000
0.16500000, 0.01500000, 73278209485095875208503848410545682910940463742287617478174682181387799986653290186145792.00000000
0.17500000, 0.01500000, -105329072149633965351928658949503948799663834087069558810203470942683509175679856674865152.00000000
0.18500000, 0.01500000, 135340755232144930900737165053939460480253683163350931248231427699484846282486006006415360.00000000
0.19500000, 0.01500000, -206131561887598385634128254390114770645068363949550643447970246141010115249995872888422400.00000000
0.20500000, 0.01500000, 311835754386368023323325356556834378002629073417349199193750433095707378268282281820946432.00000000
0.21500000, 0.01500000, -473181657381503233496571192200845677069841967494730613007194299878753917544128762152484864.00000000
0.22500000, 0.01500000, 697945989875197615115483399816201528669048414293058566329288846717890348007917909092335616.00000000
0.23500000, 0.01500000, -1041050466081518864585505295822005545399881418428433249653257268513469909649779378901483520.00000000
0.24500000, 0.01500000, 1553919878726735264076055098570434958561068222859668191291256924891627947184886560128499712.00000000
0.25500000, 0.01500000, -2218648516613326554565431257525823479877048233782240424750110038261353339486923664763387904.00000000
0.26500000, 0.01500000, 3004350980582118156198932938864807962666893338766058691893551878461253806863040493503119360.00000000
0.27500000, 0.01500000, -3914204825895622820730464226990481836613484974689328279088440846043733037504977977955319808.00000000
0.28500000, 0.01500000, 4977901439948446765325307784217455507261835090915770035386796387248753543654941703710703616.00000000
0.29500000, 0.01500000, -6264903157794979395603086435917917763288940439739336317636598097166453842215086416071753728.00000000
0.30500000, 0.01500000, 7893455328230342941242116849501376924012148140352303836380981523206359732093268192951009280.00000000
0.31500000, 0.01500000, -10000289311609023858058540080338501000279959741312889210689374093484999350125423564339281920.00000000
0.32500000, 0.01500000, 12649345810578126913774383767027215160603505835047098116244801928316653573047534445238681600.00000000
0.33500000, 0.01500000, -15769554805486114343085134367612820422421572117112072429602071185419126981916326316478562304.00000000
0.34500000, 0.01500000, 18763544910933405558104800744363632639670846237544716987429875441610363726239728378105036800.00000000
0.35500000, 0.01500000, -21927746055949041859359452739022353033226105517146010916669951608774881123678251382332194816.00000000
0.36500000, 0.01500000, 25333700254989855066552410112645470415916071030678597270239587649535372189542579282361974784.00000000
0.37500000, 0.01500000, -27803901418610795739180688822169767028013584684243795610287712736581095819734624471191912448.00000000
0.38500000, 0.01500000, 29816149613273653552412740029393598559099582496931352543723967329386995963346840429212467200.00000000
0.39500000, 0.01500000, -31339742979194699838118827185408459212108657582206693060621870373332218186561719009235959808.00000000
0.40500000, 0.01500000, 32225720448717016895279393082985042043961821233357495924314376791118860585658927919208071168.00000000
0.41500000, 0.01500000, -32301519349947854434342287908976372462555316940763781506530420270041278346592263893478801408.00000000
0.42500000, 0.01500000, 31514838220447042375976228881989308482705856769301358088933283635500051980352262356439400448.00000000
0.43500000, 0.01500000, -29971977753075408975620986008634360565821742334736644363702365941667222202878927099704377344.00000000
0.44500000, 0.01500000, 27843868139407707814737835555144355567677362722393930237658825243026160083423377632861880320.00000000
0.45500000, 0.01500000, -25303054227072909130175441800923993338088370590401969412086222316089064225279291447014588416.00000000
0.46500000, 0.01500000, 22514340863121108804176401697988323366968421382284884564669306625863001529652391747912728576.00000000
0.47500000, 0.01500000, -19577320278307255064945480502197982921573116362081860014242469408083080439996130588920643584.00000000
0.48500000, 0.01500000, 16485637967794325616642233993740989363688794349738395309866423600099908660040212069658656768.00000000
0.49500000, 0.01500000, -13142232827793290576742205208104469195731642493169765150510273418743801663256857875893452800.00000000
0.50500000, 0.01500000, 9449961098345111498828452144560188605713042258662731934183771066634399184229255597885751296.00000000
0.51500000, 0.01500000, -5423307857048386636495679932239403462032363882581364006051829942253683827569077343785844736.00000000
0.52500000, 0.01500000, 1204463400835387737701065567008907007491482841316308290947973546094173633458156000434454528.00000000
0.53500000, 0.01500000, 3001566181769987186336289731932651782599918830029031175408607729745722677477718081998422016.00000000
0.54500000, 0.01500000, -6976250572895781893182553256779961454585156323685085509644210977247501393415793099996659712.00000000
0.55500000, 0.01500000, 10506031112069040010454414046729523299460303247630665872661954690758444562259086600199733248.00000000
0.56500000, 0.01500000, -13424573981807304682037536160834136372967766410965446389811783452251077820819928951958798336.00000000
0.57500000, 0.01500000, 15640004024459922022546588328832763152228458486081500396558606602301580016924604383734267904.00000000
0.58500000, 0.01500000, -17079455213493630075467953836188697137796005491565476023892567379553980130166944024835915776.00000000
0.59500000, 0.01500000, 17650122430194955047291453786835655971353049304566483207577647626033001556362291794751258624.00000000
0.60500000, 0.01500000, -17322087784948702220905300324028119138412049865577134563607466503572324501443636507430617088.00000000
0.61500000, 0.01500000, 16231142081027590986679705625109431574274163552799421692240894626206431604678599527991607296.00000000
0.62500000, 0.01500000, -14636190322862856975337701610085857119172513682418925702812587622158631979177997056876740608.00000000
0.63500000, 0.01500000, 12766327536281655832998781795512433008039817986237375693904409143044000675134319708229074944.00000000
0.64500000, 0.01500000, -10760750745153577242448583002952695053277224830460079178938261429538645112221467276231049216.00000000
0.65500000, 0.01500000, 8734425767839785962282144537047573529239676604074347120857428348217379701116436942212300800.00000000
0.66500000, 0.01500000, -6810558478744772518315340770213036171865765745374476816919395481905700470876381450149560320.00000000
0.67500000, 0.01500000, 5081498529649806293638965021396219605155806590463261207697171563482886794928122487845683200.00000000
0.68500000, 0.01500000, -3588964804766902249685073274576687767746031118986790404168066450786599089833820906124738560.00000000
0.69500000, 0.01500000, 2346510382468022738639406090263685183169055091637797824888193612495974239465509113500270592.00000000
0.70500000, 0.01500000, -1354314648938411317034069063237700648985771000843085879928266328789759108151972355620470784.00000000
0.71500000, 0.01500000, 596021640707513191129896851674461717494139261425155409716642815281004682068664586048897024.00000000
0.72500000, 0.01500000, -42031308809706237823506586660643199319416932469337972155672115494506183919918886319816704.00000000
0.73500000, 0.01500000, -343148404995373821450621023365532324066616863823546721809372062887842987415934680487165952.00000000
0.74500000, 0.01500000, 596202801967575089244987419700717648124808542030115263606716346268087228987050156045107200.00000000
0.75500000, 0.01500000, -749561386295331308530981173912090352557283306732546625264706148597611084535434707791249408.00000000
0.76500000, 0.01500000, 828071845827587332691056838635450793238362214993339703176113984554678263697379900092579840.00000000
0.77500000, 0.01500000, -841397246564415270710532799211696408137052743449195320964986927074126861143059396261052416.00000000
0.78500000, 0.01500000, 801958737520569066422888752036980319071698811766481625698007218650883788910579305368518656.00000000
0.79500000, 0.01500000, -736989648415915605498709454389166435678483117286044578576420780312586119681395313793302528.00000000
0.80500000, 0.01500000, 655211988933341452651747606384437824659187486497050273568049976475565784058368564945485824.00000000
0.81500000, 0.01500000, -561183138560262720356381325459149685936157499974905723273702051176027907529475773117235200.00000000
0.82500000, 0.01500000, 455941099514563455268197423377382989528453085479761223663160817238606772457398813404954624.00000000
0.83500000, 0.01500000, -353337382989109270152914429746389279681762867355133005564463590768317021757321048431263744.00000000
0.84500000, 0.01500000, 265784768968628608064072204036795021459970024432843205734959241071155034092807122929582080.00000000
0.85500000, 0.01500000, -206945173982722181585701854520506053717633967106128613426215504874253307448063225032081408.00000000
0.86500000, 0.01500000, 163146057682461753024984208099971737201900962892535264006124609549784230417221148903211008.00000000
0.87500000, 0.01500000, -114067298101607495363480414967079381651539010922218168677484101352676523089928923968962560.00000000
0.88500000, 0.01500000, 76871271741447281105293521629928064236567990746616431497206758440865586075269887898419200.00000000
0.89500000, 0.01500000, -50356878651151426507070967402353878268557295743967208711772885884299094077571784578695168.00000000
0.90500000, 0.01500000, 32190166744575080561404918624403952078394030964888555106652165624174680789701571060432896.00000000
0.91500000, 0.01500000, -19181746358316442655097895956339974019259837887074630473768986298373673398716565572026368.00000000
0.92500000, 0.01500000, 11167220499172298153147173671436036169908736073753305238950529784603790943451105235828736.00000000
0.93500000, 0.01500000, -6942585207515236434537139263324602008224396358501994542407239733169216314803718765674496.00000000
0.94500000, 0.01500000, 4008175408585556748301588038765722610050623640548950684024201471190385003428151239376896.00000000
0.95500000, 0.01500000, -2391627373580254880117545016991127948347313331167392805578547032513319902304806855770112.00000000
0.96500000, 0.01500000, 1586175923704151913722287100927619942981272197058080692499579510282350352941719396286464.00000000
0.97500000, 0.01500000, -1415036577138880777948159898958649942456006054471158113358502311434193224386814110859264.00000000
0.98500000, 0.01500000, 1619109347449535609317652676707070167423852387033511040755404732165458265170992252846080.00000000
0.99500000, 0.01500000, -2084547907071820645691666544141057534353495813508561724003249527840514633164235898617856.00000000
0.00500000, 0.02500000, -3885625049483593207794623644863009357445145238856721292398961833657951498371553321549824.00000000
0.01500000, 0.02500000, 5207144084954435217847305020168332025589923702491291949648985014757122531127043748265984.00000000
0.02500000, 0.02500000, -6928485473236539905921794121735646892372785229027192208390265017529655841802750953259008.00000000
0.03500000, 0.02500000, 8935983920295945758914924916054765859892126230989927413286347911289556060102587888697344.00000000
0.04500000, 0.02500000, -11261822282397616590808708976483834539394900099863049314650371902609839057835805441523712.00000000
0.05500000, 0.02500000, 14240591442215827928666759379979821080679779977488757485702718017528174213637931859443712.00000000
0.06500000, 0.02500000, -17974375838842178677720592081772831083575101420471838338924545917738043128732988123119616.00000000
0.07500000, 0.02500000, 22291052749566954012052815400655674781765343126641496890815680242872988257641101376094208.00000000
0.08500000, 0.02500000, -26954339169542628357981617218969331561334211250711521467387612215644366153613633032028160.00000000
0.09500000, 0.02500000, 31617042857874502920335189760576373444782034108277091587436428939917463814452008613576704.00000000
0.10500000, 0.02500000, -35910749410464602082252378485597552725441491480242909004373327027211298244507905778778112.00000000
0.11500000, 0.02500000, 39702540516147831926710057256727174754079593422449143081888649708177317127691754446782464.00000000
0.12500000, 0.02500000, -43339191822264923479069815950178575352422045136971683394591669635111814490385483812569088.00000000
0.13500000, 0.02500000, 47662422290751641190921771517227833398995522856680395941612897643014103049738805862989824.00000000
0.14500000, 0.02500000, -53790845742292594367274844814624154723303029862394694949754756789760261553138773182644224.00000000
0.15500000, 0.02500000, 62987018585839055806540154785239127819304854964751365920211900799455704477144242613911552.00000000
0.16500000, 0.02500000, -76919552412759311645419371882088943906816469412824525290620175515793119480434260447330304.00000000
0.17500000, 0.02500000, 98259567319913265202675374341787383055899548463035500845021863866744740536475341887111168.00000000
0.18500000, 0.02500000, -128547284311805140832500657190936888985516582047970729705851673735415347915143921629396992.00000000
0.19500000, 0.02500000, 177467138512596894587653166637888325098212284479510339368835970073704827655731509016395776.00000000
0.20500000, 0.02500000, -261085927845438394903727012569714690387515816531701086242312063983343096622332650733961216.00000000
0.21500000, 0.02500000, 383846631615315110928989801188200919320128351676166137080443486414974175127027007851855872.00000000
0.22500000, 0.02500000, -564237228404617269837931326645601158933983553201542612347892258450880344128426591559614464.00000000
0.23500000, 0.02500000, 844235946901598903768117393918178002572194957256491208687847770490150076946103720189362176.00000000
0.24500000, 0.02500000, -1238040721545902013469970830723216892124247265460924771103913935712841632520743494579388416.00000000
0.25500000, 0.02500000, 1733096376321409842215021537936656693955343788696254052965810859211017789896976975915909120.00000000
0.26500000, 0.02500000, -2333436743258155833859849272197867380704763177447859485707503171905871934248501602074755072.00000000
0.27500000, 0.02500000, 3059980319214749120747349010994466083244020075337177622485650058003171968575271997261479936.00000000
0.28500000, 0.02500000, -3952035201754346301038196360148249305860265160449000988366974518190954336449777145313492992.00000000
0.29500000, 0.02500000, 5078434233011450671462028730007166711508395571508441582320004099423517354547118893745307648.00000000
0.30500000, 0.02500000, -6529452446037879822246701574341780929151411193007138539486394610774497257822097936337600512.00000000
0.31500000, 0.02500000, 8383597704123258613315033809750632822777813108623963091333548468412402620954031691403362304.00000000
0.32500000, 0.02500000, -10651529982381198179500158294504146778127223568197284932576625977862024432350372629665808384.00000000
0.33500000, 0.02500000, 13243829303800129773257049120491570102150924675610592751330025968006505750157581749489500160.00000000
0.34500000, 0.02500000, -15965548491848067253661861203772847723413526977719728427916196191526075874062884554917543936.00000000
0.35500000, 0.02500000, 18575727015275482012724932404285451058587951506274404954951017801422262778362628718312030208.00000000
0.36500000, 0.02500000, -20912680263066840089798374478576744543884907438493734538250709997842175389671656267771281408.00000000
0.37500000, 0.02500000, 22932613359213557426005915580902116771007735147644476737464800034721687675246584981461401600.00000000
0.38500000, 0.02500000, -24614857072958778830226966848520253360956066665661981151099685156468640453993622375692763136.00000000