TITLE = "Linear advection equation"
VARIABLES = "x", "y", "sol"
ZONE STRANDID=1, SOLUTIONTIME=0.15, I=100, J=100, DATAPACKING=POINT
0.00500000, 0.00500000, 322.73077481
0.01500000, 0.00500000, -252.39303695
0.02500000, 0.00500000, 608.34047721
0.03500000, 0.00500000, -594.42020552
0.04500000, 0.00500000, 650.85194913
0.05500000, 0.00500000, 96.70177178
0.06500000, 0.00500000, -2376.06448211
0.07500000, 0.00500000, 6271.89535049
0.08500000, 0.00500000, -9985.99022823
0.09500000, 0.00500000, 12849.93554438
0.10500000, 0.00500000, -15290.61166466
0.11500000, 0.00500000, 15667.59278045
0.12500000, 0.00500000, -13038.34946912
0.13500000, 0.00500000, 9279.43545884
0.14500000, 0.00500000, -5402.88511283
0.15500000, 0.00500000, 982.34181445
0.16500000, 0.00500000, 3689.39612257
0.17500000, 0.00500000, -7438.03782860
0.18500000, 0.00500000, 8959.41628221
0.19500000, 0.00500000, -7851.20846369
0.20500000, 0.00500000, 5093.78647093
0.21500000, 0.00500000, -2388.03203753
0.22500000, 0.00500000, 775.92236836
0.23500000, 0.00500000, -189.77091865
0.24500000, 0.00500000, 69.73202956
0.25500000, 0.00500000, -24.83975189
0.26500000, 0.00500000, 0.11797892
0.27500000, 0.00500000, -0.58548746
0.28500000, 0.00500000, -0.61773754
0.29500000, 0.00500000, -24.44646323
0.30500000, 0.00500000, 46.92302083
0.31500000, 0.00500000, -24.49831321
0.32500000, 0.00500000, -0.72123287
0.33500000, 0.00500000, -0.74021969
0.34500000, 0.00500000, 9.58274971
0.35500000, 0.00500000, -157.02207427
0.36500000, 0.00500000, 612.30731421
0.37500000, 0.00500000, -1668.03677642
0.38500000, 0.00500000, 3334.18312494
0.39500000, 0.00500000, -5541.22671832
0.40500000, 0.00500000, 9763.62210762
0.41500000, 0.00500000, -15178.30584434
0.42500000, 0.00500000, 14827.93952878
0.43500000, 0.00500000, -7333.05513190
0.44500000, 0.00500000, 3666.76374568
0.45500000, 0.00500000, -9627.10289765
0.46500000, 0.00500000, 17257.09344642
0.47500000, 0.00500000, -19436.81350537
0.48500000, 0.00500000, 16659.04729972
0.49500000, 0.00500000, -11316.52232052
0.50500000, 0.00500000, 5753.92912059
0.51500000, 0.00500000, -2119.04570532
0.52500000, 0.00500000, 369.94941891
0.53500000, 0.00500000, 562.48749968
0.54500000, 0.00500000, -796.85421766
0.55500000, 0.00500000, 423.95672167
0.56500000, 0.00500000, -77.59804758
0.57500000, 0.00500000, -5.10352891
0.58500000, 0.00500000, -25.14772937
0.59500000, 0.00500000, 682.74759785
0.60500000, 0.00500000, -3158.77148709
0.61500000, 0.00500000, 6266.56684093
0.62500000, 0.00500000, -6295.97403831
0.63500000, 0.00500000, 3162.49989414
0.64500000, 0.00500000, -1395.78876213
0.65500000, 0.00500000, 5597.12869750
0.66500000, 0.00500000, -16475.66114752
0.67500000, 0.00500000, 25967.35307699
0.68500000, 0.00500000, -24849.42629394
0.69500000, 0.00500000, 16217.66046630
0.70500000, 0.00500000, -8383.70784998
0.71500000, 0.00500000, 3588.41830085
0.72500000, 0.00500000, -1024.77036257
0.73500000, 0.00500000, 127.74310345
0.74500000, 0.00500000, 0.47542748
0.75500000, 0.00500000, 0.51419175
0.76500000, 0.00500000, -1521.84058447
0.77500000, 0.00500000, 9131.78846307
0.78500000, 0.00500000, -22826.91082738
0.79500000, 0.00500000, 28967.64217150
0.80500000, 0.00500000, -14014.81833373
0.81500000, 0.00500000, -10906.41571803
0.82500000, 0.00500000, 19564.26279792
0.83500000, 0.00500000, -3054.58824460
0.84500000, 0.00500000, -16235.92929732
0.85500000, 0.00500000, 16007.65724444
0.86500000, 0.00500000, -5053.30511842
0.87500000, 0.00500000, -55.21102474
0.88500000, 0.00500000, -872.30442251
0.89500000, 0.00500000, 991.91960784
0.90500000, 0.00500000, 562.28852693
0.91500000, 0.00500000, -89.73357861
0.92500000, 0.00500000, -5838.21489907
0.93500000, 0.00500000, 16953.40759841
0.94500000, 0.00500000, -24200.31988538
0.95500000, 0.00500000, 17787.41039933
0.96500000, 0.00500000, -3689.10771582
0.97500000, 0.00500000, -4267.21323044
0.98500000, 0.00500000, 3825.95165846
0.99500000, 0.00500000, -1412.79379914
0.00500000, 0.01500000, -231.72346900
0.01500000, 0.01500000, 184.25062839
0.02500000, 0.01500000, -371.04126874
0.03500000, 0.01500000, 485.82255581
0.04500000, 0.01500000, -447.22594175
0.05500000, 0.01500000, -39.04335791
0.06500000, 0.01500000, 1421.27859127
0.07500000, 0.01500000, -3646.14124875
0.08500000, 0.01500000, 6731.01201819
0.09500000, 0.01500000, -11183.92386305
0.10500000, 0.01500000, 15545.71852550
0.11500000, 0.01500000, -17171.13029395
0.12500000, 0.01500000, 15775.50519839
0.13500000, 0.01500000, -12119.10925637
0.14500000, 0.01500000, 5903.60873785
0.15500000, 0.01500000, 2771.67275665
0.16500000, 0.01500000, -12027.16306870
0.17500000, 0.01500000, 18274.91423075
0.18500000, 0.01500000, -18436.39429390
0.19500000, 0.01500000, 13197.35234898
0.20500000, 0.01500000, -6700.65105165
0.21500000, 0.01500000, 2371.64064657
0.22500000, 0.01500000, -574.19359999
0.23500000, 0.01500000, 100.40864228
0.24500000, 0.01500000, -15.05514908
0.25500000, 0.01500000, -0.49175234
0.26500000, 0.01500000, -0.52642984
0.27500000, 0.01500000, -0.55902975
0.28500000, 0.01500000, -0.58942344
0.29500000, 0.01500000, 5.33223745
0.30500000, 0.01500000, -6.59284986
0.31500000, 0.01500000, -0.66621391
0.32500000, 0.01500000, -0.68667711
0.33500000, 0.01500000, -0.70443030
0.34500000, 0.01500000, -38.62919813
0.35500000, 0.01500000, 385.45363030
0.36500000, 0.01500000, -1707.00095919
0.37500000, 0.01500000, 4541.66044899
0.38500000, 0.01500000, -7955.75715139
0.39500000, 0.01500000, 10108.78046568
0.40500000, 0.01500000, -10810.11374482
0.41500000, 0.01500000, 10091.09763932
0.42500000, 0.01500000, -7107.46902790
0.43500000, 0.01500000, 4703.21372877
0.44500000, 0.01500000, -7547.07115505
0.45500000, 0.01500000, 14434.03984802
0.46500000, 0.01500000, -20003.70147389
0.47500000, 0.01500000, 20685.97196354
0.48500000, 0.01500000, -16299.05231620
0.49500000, 0.01500000, 9783.77233031
0.50500000, 0.01500000, -4946.21595324
0.51500000, 0.01500000, 2774.54802650
0.52500000, 0.01500000, -1734.61145824
0.53500000, 0.01500000, 863.05545014
0.54500000, 0.01500000, -314.26189136
0.55500000, 0.01500000, 104.35223109
0.56500000, 0.01500000, -29.01771045
0.57500000, 0.01500000, 2.08492326
0.58500000, 0.01500000, 3.94543134
0.59500000, 0.01500000, -320.67554540
0.60500000, 0.01500000, 1259.98014700
0.61500000, 0.01500000, -1892.78171178
0.62500000, 0.01500000, 1264.93741819
0.63500000, 0.01500000, -316.28382504
0.64500000, 0.01500000, 643.60030322
0.65500000, 0.01500000, -3746.21366765
0.66500000, 0.01500000, 9002.82262881
0.67500000, 0.01500000, -12196.33885364
0.68500000, 0.01500000, 11202.58125361
0.69500000, 0.01500000, -7981.13902115
0.70500000, 0.01500000, 4305.97597778
0.71500000, 0.01500000, -1434.89279510
0.72500000, 0.01500000, 205.40921928
0.73500000, 0.01500000, 0.41671970
0.74500000, 0.01500000, 0.45513413
0.75500000, 0.01500000, 0.49175234
0.76500000, 0.01500000, 1015.10453824
0.77500000, 0.01500000, -5072.33151225
0.78500000, 0.01500000, 10143.97613688
0.79500000, 0.01500000, -9156.94993769
0.80500000, 0.01500000, 165.98657455
0.81500000, 0.01500000, 7192.64002043
0.82500000, 0.01500000, -5411.55117891
0.83500000, 0.01500000, -3967.93192803
0.84500000, 0.01500000, 7902.86547074
0.85500000, 0.01500000, -4261.40886493
0.86500000, 0.01500000, 383.96736508
0.87500000, 0.01500000, -206.21585901
0.88500000, 0.01500000, 707.42785321
0.89500000, 0.01500000, -241.92838933
0.90500000, 0.01500000, -188.94576359
0.91500000, 0.01500000, -675.28665406
0.92500000, 0.01500000, 4361.35394147
0.93500000, 0.01500000, -9334.88329673
0.94500000, 0.01500000, 8124.70432184
0.95500000, 0.01500000, -1085.49596800
0.96500000, 0.01500000, -4441.93131619
0.97500000, 0.01500000, 5336.03025953
0.98500000, 0.01500000, -3016.35981218
0.99500000, 0.01500000, 1057.54533497
0.00500000, 0.02500000, -69.73067469
0.01500000, 0.02500000, 14.72624549
0.02500000, 0.02500000, 247.37724969
0.03500000, 0.02500000, -461.33391632
0.04500000, 0.02500000, 408.70003192
0.05500000, 0.02500000, -25.07975794
0.06500000, 0.02500000, -716.83819907
0.07500000, 0.02500000, 2144.82373556
0.08500000, 0.02500000, -5301.47227143
0.09500000, 0.02500000, 10376.99228008
0.10500000, 0.02500000, -15533.75170150
0.11500000, 0.02500000, 18744.15443954
0.12500000, 0.02500000, -18457.04233983
0.13500000, 0.02500000, 13209.89833053
0.14500000, 0.02500000, -2952.18086364
0.15500000, 0.02500000, -10384.54996543
0.16500000, 0.02500000, 22609.93086768
0.17500000, 0.02500000, -27740.88531249
0.18500000, 0.02500000, 23080.04631398
0.19500000, 0.02500000, -13210.85508257
0.20500000, 0.02500000, 5111.70299544
0.21500000, 0.02500000, -1305.80150223
0.22500000, 0.02500000, 217.60981246
0.23500000, 0.02500000, -22.21152786
0.24500000, 0.02500000, -0.43304456
0.25500000, 0.02500000, -0.46737222
0.26500000, 0.02500000, -0.49985537
0.27500000, 0.02500000, -0.53036581
0.28500000, 0.02500000, -0.55878315
0.29500000, 0.02500000, -1.24607616
0.30500000, 0.02500000, -0.60889860
0.31500000, 0.02500000, -0.63039892
0.32500000, 0.02500000, -0.64941134
0.33500000, 0.02500000, -0.66586084
0.34500000, 0.02500000, 94.09480426
0.35500000, 0.02500000, -854.20637332
0.36500000, 0.02500000, 3410.66168785
0.37500000, 0.02500000, -7961.76177507
0.38500000, 0.02500000, 11940.41216982
0.39500000, 0.02500000, -12241.82079416
0.40500000, 0.02500000, 9305.43001367
0.41500000, 0.02500000, -6109.98860619
0.42500000, 0.02500000, 5169.06216851
0.43500000, 0.02500000, -8031.89501789
0.44500000, 0.02500000, 14069.63041905
0.45500000, 0.02500000, -20164.74849254
0.46500000, 0.02500000, 22568.92074792
0.47500000, 0.02500000, -19400.62416363
0.48500000, 0.02500000, 12874.92559697
0.49500000, 0.02500000, -7583.94037008
0.50500000, 0.02500000, 5395.32458349
0.51500000, 0.02500000, -4474.72245723
0.52500000, 0.02500000, 3089.74394512
0.53500000, 0.02500000, -1519.57006464
0.54500000, 0.02500000, 505.97928192
0.55500000, 0.02500000, -105.48810013
0.56500000, 0.02500000, 9.23435677
0.57500000, 0.02500000, -0.28238277
0.58500000, 0.02500000, -0.56458949
0.59500000, 0.02500000, 114.80256814
0.60500000, 0.02500000, -344.78551516
0.61500000, 0.02500000, 344.89198507
0.62500000, 0.02500000, -115.06921424
0.63500000, 0.02500000, -0.02348860
0.64500000, 0.02500000, -362.18674660
0.65500000, 0.02500000, 1768.93323954
0.66500000, 0.02500000, -3810.44534578
0.67500000, 0.02500000, 5198.71842870
0.68500000, 0.02500000, -5186.52051121
0.69500000, 0.02500000, 3588.30848007
0.70500000, 0.02500000, -1434.94781405
0.71500000, 0.02500000, 239.52503419
0.72500000, 0.02500000, 0.35940438
0.73500000, 0.02500000, 0.39700788
0.74500000, 0.02500000, 0.84114352
0.75500000, 0.02500000, -0.40305249
0.76500000, 0.02500000, -506.32687308
0.77500000, 0.02500000, 2024.59874767
0.78500000, 0.02500000, -3027.92858691
0.79500000, 0.02500000, 1519.27380250
0.80500000, 0.02500000, 1470.13838920
0.81500000, 0.02500000, -2053.56688011
0.82500000, 0.02500000, 26.78500309
0.83500000, 0.02500000, 2600.22683479
0.84500000, 0.02500000, -2324.87027814
0.85500000, 0.02500000, 1109.15668159
0.86500000, 0.02500000, -1063.31223957
0.87500000, 0.02500000, 1200.03863421
0.88500000, 0.02500000, -718.76293638
0.89500000, 0.02500000, 90.73200600
0.90500000, 0.02500000, 197.44685013
0.91500000, 0.02500000, 257.99606400
0.92500000, 0.02500000, -1802.81845014
0.93500000, 0.02500000, 2249.96827900
0.94500000, 0.02500000, 2129.22362777
0.95500000, 0.02500000, -5753.72910400
0.96500000, 0.02500000, 7094.76469703
0.97500000, 0.02500000, -4868.51933374
0.98500000, 0.02500000, 2098.97718182
0.99500000, 0.02500000, -482.78324854
0.00500000, 0.03500000, 387.57194672
0.01500000, 0.03500000, -112.82133817
0.02500000, 0.03500000, -316.94709840
0.03500000, 0.03500000, 498.23376399
0.04500000, 0.03500000, -331.96407307
0.05500000, 0.03500000, 32.79172428
0.06500000, 0.03500000, 333.77004098
0.07500000, 0.03500000, -1424.27573054
0.08500000, 0.03500000, 4282.47718571
0.09500000, 0.03500000, -9090.72746916
0.10500000, 0.03500000, 14756.27468273
0.11500000, 0.03500000, -18633.51060567
0.12500000, 0.03500000, 17234.72764531
0.13500000, 0.03500000, -9380.22927071
0.14500000, 0.03500000, -3177.93020059
0.15500000, 0.03500000, 17437.39502644
0.16500000, 0.03500000, -27749.66451247
0.17500000, 0.03500000, 27784.96355448
0.18500000, 0.03500000, -18461.72184261
0.19500000, 0.03500000, 7991.10800262
0.20500000, 0.03500000, -2161.60675171
0.21500000, 0.03500000, 350.20981693
0.22500000, 0.03500000, -32.14359604
0.23500000, 0.03500000, -0.37572924
0.24500000, 0.03500000, -0.40924597
0.25500000, 0.03500000, -0.44114758
0.26500000, 0.03500000, -0.47130819
0.27500000, 0.03500000, -0.49960876
0.28500000, 0.03500000, -0.52593761
0.29500000, 0.03500000, -0.55019081
0.30500000, 0.03500000, -0.57227267
0.31500000, 0.03500000, -0.59209603
0.32500000, 0.03500000, -0.60958265
0.33500000, 0.03500000, -0.62466353
0.34500000, 0.03500000, -171.23135530
0.35500000, 0.03500000, 1364.10522950
0.36500000, 0.03500000, -4777.28905764
0.37500000, 0.03500000, 9552.60837818
0.38500000, 0.03500000, -11942.24757370
0.39500000, 0.03500000, 9711.62805562
0.40500000, 0.03500000, -5658.51988159
0.41500000, 0.03500000, 4222.17859436
0.42500000, 0.03500000, -7202.69389219
0.43500000, 0.03500000, 13106.87500822
0.44500000, 0.03500000, -18657.72948571
0.45500000, 0.03500000, 20784.33500026
0.46500000, 0.03500000, -18113.39203747
0.47500000, 0.03500000, 12382.61954528
0.48500000, 0.03500000, -7792.80199908
0.49500000, 0.03500000, 6562.29758008
0.50500000, 0.03500000, -6676.68560255
0.51500000, 0.03500000, 5497.85944498
0.52500000, 0.03500000, -3144.60434676
0.53500000, 0.03500000, 1177.45731558
0.54500000, 0.03500000, -263.18534347
0.55500000, 0.03500000, 25.94794720
0.56500000, 0.03500000, -0.29709884
0.57500000, 0.03500000, -0.25933457
0.58500000, 0.03500000, -0.22054682
0.59500000, 0.03500000, -28.93122153
0.60500000, 0.03500000, 57.36014906
0.61500000, 0.03500000, -28.84992291
0.62500000, 0.03500000, -0.05827043
0.63500000, 0.03500000, -0.01672084
0.64500000, 0.03500000, 140.21570468
0.65500000, 0.03500000, -637.97430033
0.66500000, 0.03500000, 1464.49647610
0.67500000, 0.03500000, -2196.58576036
0.68500000, 0.03500000, 2050.51432794
0.69500000, 0.03500000, -1024.93455175
0.70500000, 0.03500000, 205.29939850
0.71500000, 0.03500000, 0.30438543
0.72500000, 0.03500000, 0.34072969
0.73500000, 0.03500000, 0.37572924
0.74500000, 0.03500000, 0.00114701
0.75500000, 0.03500000, 0.90347334
0.76500000, 0.03500000, 184.94005518
0.77500000, 0.03500000, -542.41701852
0.78500000, 0.03500000, 535.23184206
0.79500000, 0.03500000, 20.85968253
0.80500000, 0.03500000, -584.63876254
0.81500000, 0.03500000, 410.94321342
0.82500000, 0.03500000, 442.93605223
0.83500000, 0.03500000, -993.90968822
0.84500000, 0.03500000, 1076.36057153
0.85500000, 0.03500000, -1656.93625044
0.86500000, 0.03500000, 2180.29330643
0.87500000, 0.03500000, -1542.73736591
0.88500000, 0.03500000, 359.90134403
0.89500000, 0.03500000, 459.67591839
0.90500000, 0.03500000, -625.88901089
0.91500000, 0.03500000, 269.19145629
0.92500000, 0.03500000, -148.35847396
0.93500000, 0.03500000, 1912.71148829
0.94500000, 0.03500000, -5320.92637904
0.95500000, 0.03500000, 7174.15427727
0.96500000, 0.03500000, -5708.76372111
0.97500000, 0.03500000, 2833.34817296
0.98500000, 0.03500000, -760.36356889
0.99500000, 0.03500000, -173.71635266
0.00500000, 0.04500000, -508.80499803
0.01500000, 0.04500000, -18.60942122
0.02500000, 0.04500000, 418.47560983
0.03500000, 0.04500000, -416.78364687
0.04500000, 0.04500000, 189.26568945
0.05500000, 0.04500000, -16.95872634
0.06500000, 0.04500000, -165.35219424
0.07500000, 0.04500000, 953.31386374
0.08500000, 0.04500000, -3187.87941371
0.09500000, 0.04500000, 7428.41539045
0.10500000, 0.04500000, -12526.17105327
0.11500000, 0.04500000, 14760.50727935
0.12500000, 0.04500000, -11269.72267344
0.13500000, 0.04500000, 3085.57197551
0.14500000, 0.04500000, 7690.32412426
0.15500000, 0.04500000, -18407.93741435
0.16500000, 0.04500000, 23222.50378700
0.17500000, 0.04500000, -18514.18340193
0.18500000, 0.04500000, 9248.33737847
0.19500000, 0.04500000, -2728.65734840
0.20500000, 0.04500000, 429.18529240
0.21500000, 0.04500000, -32.09005345
0.22500000, 0.04500000, -0.32071029
0.23500000, 0.04500000, -0.35296778
0.24500000, 0.04500000, -0.38383227
0.25500000, 0.04500000, -0.41318195
0.26500000, 0.04500000, -0.44090098
0.27500000, 0.04500000, -0.46687998
0.28500000, 0.04500000, -0.49101643
0.29500000, 0.04500000, -0.51321505
0.30500000, 0.04500000, -0.53338825
0.31500000, 0.04500000, -0.55145640
0.32500000, 0.04500000, -0.56734822
0.33500000, 0.04500000, -0.58100096
0.34500000, 0.04500000, 226.86640744
0.35500000, 0.04500000, -1592.81276021
0.36500000, 0.04500000, 4776.02610083
0.37500000, 0.04500000, -7961.66916755
0.38500000, 0.04500000, 7960.44277403
0.39500000, 0.04500000, -4918.04342386
0.40500000, 0.04500000, 2681.51500832
0.41500000, 0.04500000, -4374.52218143
0.42500000, 0.04500000, 9651.28943707
0.43500000, 0.04500000, -15107.31150307
0.44500000, 0.04500000, 16984.40608317
0.45500000, 0.04500000, -14252.94970527
0.46500000, 0.04500000, 9128.71013795
0.47500000, 0.04500000, -5363.26287903
0.48500000, 0.04500000, 5084.07950745
0.49500000, 0.04500000, -6579.09543074
0.50500000, 0.04500000, 6590.50755562
0.51500000, 0.04500000, -4415.00219350
0.52500000, 0.04500000, 1891.13829918
0.53500000, 0.04500000, -473.43844589
0.54500000, 0.04500000, 52.22586941
0.55500000, 0.04500000, -0.30451536
0.56500000, 0.04500000, -0.27042274
0.57500000, 0.04500000, -0.23526289
0.58500000, 0.04500000, -0.19917457
0.59500000, 0.04500000, 4.26082794
0.60500000, 0.04500000, -4.54791342
0.61500000, 0.04500000, -0.08677791
0.62500000, 0.04500000, -0.04842807
0.63500000, 0.04500000, -0.00988710
0.64500000, 0.04500000, -36.12934209
0.65500000, 0.04500000, 201.41684473
0.66500000, 0.04500000, -549.07820315
0.67500000, 0.04500000, 769.01524201
0.68500000, 0.04500000, -512.40102833
0.69500000, 0.04500000, 128.36222644
0.70500000, 0.04500000, 0.25253052
0.71500000, 0.04500000, 0.28718710
0.72500000, 0.04500000, 0.32071029
0.73500000, 0.04500000, 0.35296778
0.74500000, 0.04500000, 0.38383227
0.75500000, 0.04500000, 0.41318195
0.76500000, 0.04500000, -38.65817503
0.77500000, 0.04500000, 86.09027507
0.78500000, 0.04500000, -27.63351798
0.79500000, 0.04500000, -63.48371536
0.80500000, 0.04500000, 257.03910967
0.81500000, 0.04500000, -229.73077961
0.82500000, 0.04500000, -51.37683006
0.83500000, 0.04500000, 643.19344056
0.84500000, 0.04500000, -1604.95011577
0.85500000, 0.04500000, 2661.84796684
0.86500000, 0.04500000, -2430.30026662
0.87500000, 0.04500000, 926.38058092
0.88500000, 0.04500000, 514.25462751
0.89500000, 0.04500000, -960.61367554
0.90500000, 0.04500000, 653.05878014
0.91500000, 0.04500000, -386.62388004
0.92500000, 0.04500000, 1190.46636031
0.93500000, 0.04500000, -3463.10267195
0.94500000, 0.04500000, 5485.11425843
0.95500000, 0.04500000, -4995.98997072
0.96500000, 0.04500000, 2578.96537435
0.97500000, 0.04500000, -498.37456544
0.98500000, 0.04500000, -452.19121917
0.99500000, 0.04500000, 718.38550320
0.00500000, 0.05500000, 337.47365567
0.01500000, 0.05500000, 192.85262958
0.02500000, 0.05500000, -357.42323140
0.03500000, 0.05500000, 227.51511360
0.04500000, 0.05500000, -65.17058720
0.05500000, 0.05500000, 3.36850726
0.06500000, 0.05500000, 83.64406673
0.07500000, 0.05500000, -569.80760197
0.08500000, 0.05500000, 2199.32418606
0.09500000, 0.05500000, -5425.83140809
0.10500000, 0.05500000, 8527.72370264
0.11500000, 0.05500000, -8404.76229600
0.12500000, 0.05500000, 4637.46497172
0.13500000, 0.05500000, 1002.20253507
0.14500000, 0.05500000, -7741.32814628
0.15500000, 0.05500000, 13287.11078730
0.16500000, 0.05500000, -13267.31233356
0.17500000, 0.05500000, 7933.46553021
0.18500000, 0.05500000, -2661.30649480
0.19500000, 0.05500000, 423.06600920
0.20500000, 0.05500000, -21.43913541
0.21500000, 0.05500000, -0.26885538
0.22500000, 0.05500000, -0.29942519
0.23500000, 0.05500000, -0.32881331
0.24500000, 0.05500000, -0.35690376
0.25500000, 0.05500000, -0.38358567
0.26500000, 0.05500000, -0.40875374
0.27500000, 0.05500000, -0.43230864
0.28500000, 0.05500000, -0.45415743
0.29500000, 0.05500000, -0.47421386
0.30500000, 0.05500000, -0.49239878
0.31500000, 0.05500000, -0.50864043
0.32500000, 0.05500000, -0.52287471
0.33500000, 0.05500000, -0.53504545
0.34500000, 0.05500000, -228.00387280
0.35500000, 0.05500000, 1364.19959674
0.36500000, 0.05500000, -3412.44026091
0.37500000, 0.05500000, 4548.61310589
0.38500000, 0.05500000, -3412.44508254
0.39500000, 0.05500000, 1541.29751429
0.40500000, 0.05500000, -1617.60970591
0.41500000, 0.05500000, 4801.10624466
0.42500000, 0.05500000, -9529.56136628
0.43500000, 0.05500000, 12059.70860111
0.44500000, 0.05500000, -10210.75228101
0.45500000, 0.05500000, 5832.58916314
0.46500000, 0.05500000, -2527.24507842
0.47500000, 0.05500000, 2315.57537184
0.48500000, 0.05500000, -4244.91639444
0.49500000, 0.05500000, 5470.69168715
0.50500000, 0.05500000, -4415.72803149
0.51500000, 0.05500000, 2207.21669833
0.52500000, 0.05500000, -631.12085619
0.53500000, 0.05500000, 78.51122280
0.54500000, 0.05500000, -0.30451536
0.55500000, 0.05500000, -0.27413834
0.56500000, 0.05500000, -0.24267941
0.57500000, 0.05500000, -0.21026274
0.58500000, 0.05500000, -0.17701626
0.59500000, 0.05500000, -0.45900890
0.60500000, 0.05500000, -0.10856146
0.61500000, 0.05500000, -0.07362330
0.62500000, 0.05500000, -0.03839458
0.63500000, 0.05500000, -0.00301433
0.64500000, 0.05500000, 5.66348058
0.65500000, 0.05500000, -62.51694910
0.66500000, 0.05500000, 170.96310508
0.67500000, 0.05500000, -170.72323359
0.68500000, 0.05500000, 57.12477116
0.69500000, 0.05500000, 0.20465743
0.70500000, 0.05500000, 0.23722451
0.71500000, 0.05500000, 0.26885538
0.72500000, 0.05500000, 0.29942519
0.73500000, 0.05500000, 0.32881331
0.74500000, 0.05500000, 0.35690376
0.75500000, 0.05500000, 0.03041534
0.76500000, 0.05500000, 7.85687587
0.77500000, 0.05500000, -1.30823893
0.78500000, 0.05500000, -44.68697459
0.79500000, 0.05500000, 176.11481958
0.80500000, 0.05500000, -386.20462258
0.81500000, 0.05500000, 488.84563156
0.82500000, 0.05500000, -168.40762172
0.83500000, 0.05500000, -769.28067080
0.84500000, 0.05500000, 2038.42216408
0.85500000, 0.05500000, -2568.87578999
0.86500000, 0.05500000, 1563.60944106
0.87500000, 0.05500000, 25.15133855
0.88500000, 0.05500000, -687.03591055
0.89500000, 0.05500000, 282.32425462
0.90500000, 0.05500000, 233.72797880
0.91500000, 0.05500000, 30.04119565
0.92500000, 0.05500000, -1350.13047208
0.93500000, 0.05500000, 2930.70636421
0.94500000, 0.05500000, -2943.17780564
0.95500000, 0.05500000, 999.00246458
0.96500000, 0.05500000, 966.78315290
0.97500000, 0.05500000, -1621.08562730
0.98500000, 0.05500000, 1429.42605637
0.99500000, 0.05500000, -958.99252907
0.00500000, 0.06500000, -68.58529074
0.01500000, 0.06500000, -202.28869575
0.02500000, 0.06500000, 182.84569167
0.03500000, 0.06500000, -70.89026699
0.04500000, 0.06500000, 10.57114822
0.05500000, 0.06500000, 1.06622212
0.06500000, 0.06500000, -32.81041941
0.07500000, 0.06500000, 311.13285505
0.08500000, 0.06500000, -1378.48573212
0.09500000, 0.06500000, 3222.30048839
0.10500000, 0.06500000, -4238.44242967
0.11500000, 0.06500000, 3172.03305759
0.12500000, 0.06500000, -931.04893622
0.13500000, 0.06500000, -1785.26337705
0.14500000, 0.06500000, 4982.65597611
0.15500000, 0.06500000, -6625.52306522
0.16500000, 0.06500000, 4937.76635429
0.17500000, 0.06500000, -1967.04400642
0.18500000, 0.06500000, 341.63297657
0.19500000, 0.06500000, -9.27816311
0.20500000, 0.06500000, -0.22098229
0.21500000, 0.06500000, -0.24946260
0.22500000, 0.06500000, -0.27695840
0.23500000, 0.06500000, -0.30336117
0.24500000, 0.06500000, -0.32856671
0.25500000, 0.06500000, -0.35247555
0.26500000, 0.06500000, -0.37499333
0.27500000, 0.06500000, -0.39603118
0.28500000, 0.06500000, -0.41550608
0.29500000, 0.06500000, -0.43334116
0.30500000, 0.06500000, -0.44946604
0.31500000, 0.06500000, -0.46381709
0.32500000, 0.06500000, -0.47633767
0.33500000, 0.06500000, -0.48697835
0.34500000, 0.06500000, 170.09837899
0.35500000, 0.06500000, -853.47284043
0.36500000, 0.06500000, 1705.43352231
0.37500000, 0.06500000, -1706.45077843
0.38500000, 0.06500000, 852.45959897
0.39500000, 0.06500000, -369.33841650
0.40500000, 0.06500000, 1385.18961950
0.41500000, 0.06500000, -4102.71313206
0.42500000, 0.06500000, 6686.03843247
0.43500000, 0.06500000, -6487.48543762
0.44500000, 0.06500000, 3657.78579413
0.45500000, 0.06500000, -977.43649893
0.46500000, 0.06500000, 386.79153436
0.47500000, 0.06500000, -1650.75987718
0.48500000, 0.06500000, 3098.51003729
0.49500000, 0.06500000, -3154.18763341
0.50500000, 0.06500000, 1891.90822731
0.51500000, 0.06500000, -631.10614011
0.52500000, 0.06500000, 89.78587004
0.53500000, 0.06500000, -0.29709884
0.54500000, 0.06500000, -0.27042274
0.55500000, 0.06500000, -0.24267941
0.56500000, 0.06500000, -0.21397833
0.57500000, 0.06500000, -0.18443278
0.58500000, 0.06500000, -0.15415935
0.59500000, 0.06500000, -0.12327753
0.60500000, 0.06500000, -0.09190919
0.61500000, 0.06500000, -0.06017812
0.62500000, 0.06500000, -0.02820956
0.63500000, 0.06500000, 0.00387033
0.64500000, 0.06500000, -0.36628668
0.65500000, 0.06500000, 17.15390430
0.66500000, 0.06500000, -34.07258036
0.67500000, 0.06500000, 17.21682155
0.68500000, 0.06500000, 0.16152116
0.69500000, 0.06500000, 0.19162986
0.70500000, 0.06500000, 0.22098229
0.71500000, 0.06500000, 0.24946260
0.72500000, 0.06500000, 0.27695840
0.73500000, 0.06500000, 0.30336117
0.74500000, 0.06500000, 0.32856671
0.75500000, 0.06500000, 0.70564588
0.76500000, 0.06500000, -0.34582218
0.77500000, 0.06500000, -11.33191166
0.78500000, 0.06500000, 82.10134360
0.79500000, 0.06500000, -264.76131654
0.80500000, 0.06500000, 497.52026545
0.81500000, 0.06500000, -486.56355276
0.82500000, 0.06500000, -41.04601378
0.83500000, 0.06500000, 1013.77090121
0.84500000, 0.06500000, -1839.10942379
0.85500000, 0.06500000, 1660.00107928
0.86500000, 0.06500000, -629.38576017
0.87500000, 0.06500000, -3.69447524
0.88500000, 0.06500000, -526.64767291
0.89500000, 0.06500000, 1555.40615603
0.90500000, 0.06500000, -1659.03655831
0.91500000, 0.06500000, 687.29131535
0.92500000, 0.06500000, 340.57323058
0.93500000, 0.06500000, -192.21305757
0.94500000, 0.06500000, -1597.72105968
0.95500000, 0.06500000, 3514.91971269
0.96500000, 0.06500000, -3842.26453173
0.97500000, 0.06500000, 2857.91324530
0.98500000, 0.06500000, -1659.00616192
0.99500000, 0.06500000, 707.29525372
0.00500000, 0.07500000, -46.11331918
0.01500000, 0.07500000, 83.25245345
0.02500000, 0.07500000, -3.87454565
0.03500000, 0.07500000, -74.36747588
0.04500000, 0.07500000, 112.96311188
0.05500000, 0.07500000, -112.70035998
0.06500000, 0.07500000, 93.59198524
0.07500000, 0.07500000, -206.81283982
0.08500000, 0.07500000, 739.04242403
0.09500000, 0.07500000, -1424.15425481
0.10500000, 0.07500000, 1418.69675106
0.11500000, 0.07500000, -708.19639166
0.12500000, 0.07500000, -80.61727028
0.13500000, 0.07500000, 1107.25412941
0.14500000, 0.07500000, -2214.56908851
0.15500000, 0.07500000, 2178.19391821
0.16500000, 0.07500000, -1068.95334040
0.17500000, 0.07500000, 221.46129778
0.18500000, 0.07500000, -2.42275552
0.19500000, 0.07500000, -0.17784602
0.20500000, 0.07500000, -0.20386795
0.21500000, 0.07500000, -0.22908531
0.22500000, 0.07500000, -0.25339858
0.23500000, 0.07500000, -0.27671180
0.24500000, 0.07500000, -0.29893296
0.25500000, 0.07500000, -0.31997437
0.26500000, 0.07500000, -0.33975299
0.27500000, 0.07500000, -0.35819076
0.28500000, 0.07500000, -0.37521491
0.29500000, 0.07500000, -0.39075826
0.30500000, 0.07500000, -0.40475947
0.31500000, 0.07500000, -0.41716328
0.32500000, 0.07500000, -0.42792073
0.33500000, 0.07500000, -0.43698938
0.34500000, 0.07500000, -95.21882018
0.35500000, 0.07500000, 378.64802311
0.36500000, 0.07500000, -569.10065922
0.37500000, 0.07500000, 378.64218417
0.38500000, 0.07500000, -95.23047503
0.39500000, 0.07500000, 172.75757193
0.40500000, 0.07500000, -1039.72296304
0.41500000, 0.07500000, 2549.71779203
0.42500000, 0.07500000, -3247.67289412
0.43500000, 0.07500000, 2161.87106287
0.44500000, 0.07500000, -505.91461547
0.45500000, 0.07500000, -184.22949459
0.46500000, 0.07500000, -256.45807318
0.47500000, 0.07500000, 1134.27835217
0.48500000, 0.07500000, -1577.26085778
0.49500000, 0.07500000, 1182.32920187
0.50500000, 0.07500000, -473.39452975
0.51500000, 0.07500000, 78.54059687
0.52500000, 0.07500000, -0.28238277
0.53500000, 0.07500000, -0.25933457
0.54500000, 0.07500000, -0.23526289
0.55500000, 0.07500000, -0.21026274
0.56500000, 0.07500000, -0.18443278
0.57500000, 0.07500000, -0.15787494
0.58500000, 0.07500000, -0.13069405
0.59500000, 0.07500000, -0.10299736
0.60500000, 0.07500000, -0.07489420
0.61500000, 0.07500000, -0.04649545
0.62500000, 0.07500000, -0.01791322
0.63500000, 0.07500000, 0.01073972
0.64500000, 0.07500000, 0.03935027
0.65500000, 0.07500000, -3.03874840
0.66500000, 0.07500000, 3.20254709
0.67500000, 0.07500000, 0.12380198
0.68500000, 0.07500000, 0.15112220
0.69500000, 0.07500000, 0.17784602
0.70500000, 0.07500000, 0.20386795
0.71500000, 0.07500000, 0.22908531
0.72500000, 0.07500000, 0.25339858
0.73500000, 0.07500000, 0.27671180
0.74500000, 0.07500000, 0.29893296
0.75500000, 0.07500000, 0.04678357
0.76500000, 0.07500000, 2.96730934
0.77500000, 0.07500000, 0.63639171
0.78500000, 0.07500000, -20.17969442
0.79500000, 0.07500000, 26.95123937
0.80500000, 0.07500000, 129.61068414
0.81500000, 0.07500000, -557.05359269
0.82500000, 0.07500000, 1091.57995228
0.83500000, 0.07500000, -1463.01677120
0.84500000, 0.07500000, 1401.70148750
0.85500000, 0.07500000, -863.19014167
0.86500000, 0.07500000, 688.74422264
0.87500000, 0.07500000, -1416.00459480
0.88500000, 0.07500000, 2930.53178302
0.89500000, 0.07500000, -3623.72708664
0.90500000, 0.07500000, 2576.50428200
0.91500000, 0.07500000, -1473.48805979
0.92500000, 0.07500000, 1814.56100137
0.93500000, 0.07500000, -3780.48983994
0.94500000, 0.07500000, 5808.94786816
0.95500000, 0.07500000, -6007.30751344