TITLE = "Linear advection equation"
VARIABLES = "x", "y", "sol"
ZONE STRANDID=1, SOLUTIONTIME=1.75, I=100, J=100, DATAPACKING=POINT
0.00500000, 0.00500000, 148820823487916348562586099948448198538707705018653547484303249211967005523968.00000000
0.01500000, 0.00500000, -158037178787032399899265626222309790599993673654985708230217400426869121089536.00000000
0.02500000, 0.00500000, 161542607898476242621925673729555455396532196072254379415133494459040226344960.00000000
0.03500000, 0.00500000, -167770823336203605913676507111055700333144410345425090110970327605425481973760.00000000
0.04500000, 0.00500000, 174550228550254146869877207786171475814596310699372892872527242473878648258560.00000000
0.05500000, 0.00500000, -171993650688366204058778899805214815070687126163614621137155200772810825793536.00000000
0.06500000, 0.00500000, 164611962227563314052108816429535251727265302307241534784738078250398560288768.00000000
0.07500000, 0.00500000, -155770997232582403239310047403831864429990432123169659232543192503487238766592.00000000
0.08500000, 0.00500000, 140524061524224561173966048353394967636169177906236630673651293493216409550848.00000000
0.09500000, 0.00500000, -121322408948277061034033264017126178268686970172672557942496356405333452652544.00000000
0.10500000, 0.00500000, 103188794887237951579379553846081372470864030509787701164217530054868304134144.00000000
0.11500000, 0.00500000, -86760153884814217365378546218355225410092410955536312952737285202546582880256.00000000
0.12500000, 0.00500000, 75372483852445861605043970558950367955221981754945248212619117154213853921280.00000000
0.13500000, 0.00500000, -73742424556628161822261725093126824006342807398270501745430866968258667347968.00000000
0.14500000, 0.00500000, 80514585396150788283202567716886527010475637050408264832234131421614877704192.00000000
0.15500000, 0.00500000, -96429448981074442521487662828531326247480119735937749615132004242065798987776.00000000
0.16500000, 0.00500000, 127614444125436981428381028470714623579727910917194405339093953028141545947136.00000000
0.17500000, 0.00500000, -183368329951666182179816970974113041568879899666075968786025470990193361158144.00000000
0.18500000, 0.00500000, 277145105874549128220076582086075458660485428280322462504366452888727912972288.00000000
0.19500000, 0.00500000, -427261263097017408543331996807069090585544468175892780138156206531934804770816.00000000
0.20500000, 0.00500000, 615975361983406528157061840520349927443568517893554880743130447209316946542592.00000000
0.21500000, 0.00500000, -855064370586666224601481661514129225307464057925912038954817137953402567786496.00000000
0.22500000, 0.00500000, 1266422433471516393912718734131354540355856742256453870162674707027993175261184.00000000
0.23500000, 0.00500000, -1755126817130849176998029248641083645867040224420795382747997307721593875595264.00000000
0.24500000, 0.00500000, 2192517988243806928494490202429496969746475310359555965535074860590460106178560.00000000
0.25500000, 0.00500000, -2846268595091116830474189247296161142139258094820881223330044508877979893366784.00000000
0.26500000, 0.00500000, 3758059043480021419807519767720088267451125003505877029018767479806789200904192.00000000
0.27500000, 0.00500000, -4669363213944453755624000454551151480673812315576229711164330264913668374265856.00000000
0.28500000, 0.00500000, 5584434853682965946005766031697489235815623147620543501252514845602256210886656.00000000
0.29500000, 0.00500000, -6307107121253071474094606602761832995265283325015340952301030076788917263138816.00000000
0.30500000, 0.00500000, 6737491340466946786382113031165003075731468377115655332165794217597247523127296.00000000
0.31500000, 0.00500000, -7560932087274859626664515398080984670577344828456854821833007869165452522422272.00000000
0.32500000, 0.00500000, 8737320569665785400059376926490979716391310672007808180154072393069461816475648.00000000
0.33500000, 0.00500000, -9099312235317841725401492097574511830192137435081546258029514766141696694550528.00000000
0.34500000, 0.00500000, 8923612651053007840427296715430473227652608375064393075799493838001722722615296.00000000
0.35500000, 0.00500000, -9054263235911824315467634041891536935300382882540562668575760860208417833222144.00000000
0.36500000, 0.00500000, 8743249501494211600711258804314196386674199010460413360553980344364471777492992.00000000
0.37500000, 0.00500000, -7605693495500695162325250308309284677425113371122170251859641441289096778481664.00000000
0.38500000, 0.00500000, 6022752398921352453155300114208385755733475920934190603691354668047625766305792.00000000
0.39500000, 0.00500000, -4169422109685509731822118273956443077659088023761989536786924958511316074496000.00000000
0.40500000, 0.00500000, 2242281968820623847790604575879191333913353638686315979830285584204145350410240.00000000
0.41500000, 0.00500000, -401106373715916611687905169471249679566964952535294220661784150609741245054976.00000000
0.42500000, 0.00500000, -1363311716285589658736157303082956479188331560884165928071443185529523768655872.00000000
0.43500000, 0.00500000, 3037314623654788617330319450227928090701389590845345856835178227509813097529344.00000000
0.44500000, 0.00500000, -4363251956400505169700805739802205017303528033058775439207812230525171724713984.00000000
0.45500000, 0.00500000, 5188845233272614175154511958642604403180133049353179438031299293835487164235776.00000000
0.46500000, 0.00500000, -5550851382046666797016340676537355366988258955363294995927183786558665013592064.00000000
0.47500000, 0.00500000, 5519336219801639767913741983066577218993676307212278381215124912480599911956480.00000000
0.48500000, 0.00500000, -5181474172026146701355515281853805553008618833492565948664668461571942853378048.00000000
0.49500000, 0.00500000, 4614873879436324081710534782560678810015244501631245702366223299857701434032128.00000000
0.50500000, 0.00500000, -3912555914511649012697873509034379178674487914042310257326134601583608660492288.00000000
0.51500000, 0.00500000, 3164940078470139898680752616999506166380442660496022744915089391811192976048128.00000000
0.52500000, 0.00500000, -2429117759845924534668680669161971825482206951815297958896105958726945279574016.00000000
0.53500000, 0.00500000, 1704733593432146054994492170108766068497471044223992116774524555089134953168896.00000000
0.54500000, 0.00500000, -1058183751562645787428497268701641673706010370059657218829134261160920431460352.00000000
0.55500000, 0.00500000, 607600207114339597399717375947393125864851622422128257496447359280041246588928.00000000
0.56500000, 0.00500000, -310573285058363836491590943715313733046435829836881148748783632087064416092160.00000000
0.57500000, 0.00500000, 101014238856968993731244454271481158458519292250706567940481366017538747531264.00000000
0.58500000, 0.00500000, 18644993257946343729691364685808081407817420114159226360528095883259237367808.00000000
0.59500000, 0.00500000, -73728368068601350350896580720987371886724404837305352556000755188598440984576.00000000
0.60500000, 0.00500000, 95676312571204124469512242171077966063447269801184322985726893612262257328128.00000000
0.61500000, 0.00500000, -100824974114802188307085394143834197530539180705950511207770822785956961058816.00000000
0.62500000, 0.00500000, 92992669439372262348874085218024718535602269091958843715811072235593896296448.00000000
0.63500000, 0.00500000, -79620527022713796792106148861538864424082764986269181681061778153648248848384.00000000
0.64500000, 0.00500000, 68748665938490354191340264627404380059640585335833947628007711700214649716736.00000000
0.65500000, 0.00500000, -57098926330248321693759649070056820670494352851518567481931074308290811789312.00000000
0.66500000, 0.00500000, 47924883019232151633064174813969600219129730954422515692824364000366420819968.00000000
0.67500000, 0.00500000, -47943869181431362673804105381688150968005651274753124569030563501288384888832.00000000
0.68500000, 0.00500000, 47259925328923415918323141972835230460986150963984484275331999417713574281216.00000000
0.69500000, 0.00500000, -41330349668273017824668000083243656737914421674609687534356287747722225647616.00000000
0.70500000, 0.00500000, 34883714126138189595495646221908959629662608838582107606262524945911510990848.00000000
0.71500000, 0.00500000, -28418432664077334609008033113836138226404551308444810795517227033310460379136.00000000
0.72500000, 0.00500000, 22288657382019167993776221647438807426170310279832884612743060322520431329280.00000000
0.73500000, 0.00500000, -16789541692532201283992827581242370051183692909815834132610959713234006835200.00000000
0.74500000, 0.00500000, 12096558193079224418404756856587848220648728804952568640136649012600622809088.00000000
0.75500000, 0.00500000, -8247621190711402685176667678064233194540910915837926344836668714384502030336.00000000
0.76500000, 0.00500000, 5263892548667454056198292431008169155724112663448947907384315830372164173824.00000000
0.77500000, 0.00500000, -2529083289223697803049500721647781169911605971790778645295782630994621759488.00000000
0.78500000, 0.00500000, 1718396074205612941018804556365524175006242950849855423022784422781617438720.00000000
0.79500000, 0.00500000, -1115863939614269248739957315546627761409345345616130078004690263999504187392.00000000
0.80500000, 0.00500000, 780441000092138746947099128576291006568532186333470551247701009913901744128.00000000
0.81500000, 0.00500000, -718191894774376171064148857694740605073336039251385090272996290126990540800.00000000
0.82500000, 0.00500000, 884154976233004738514125122834864219105465166857360858744468517876792295424.00000000
0.83500000, 0.00500000, -1284953591419002372261819552916109016907323616742990866011156285096682586112.00000000
0.84500000, 0.00500000, 1929822180598314580180499064310522090518797456529778472043108086621797351424.00000000
0.85500000, 0.00500000, -2925825694145635144475230497643970715761310236664696421177159415148710985728.00000000
0.86500000, 0.00500000, 4531530234101694351059959112419849530382136547394673111709639336865092861952.00000000
0.87500000, 0.00500000, -6817487124241034946024028418180958660722234015223767172493588063983771844608.00000000
0.88500000, 0.00500000, 9746798430645399387831992360087062293791532497718538539789954915936273170432.00000000
0.89500000, 0.00500000, -13529277567403155648589380189064647916689685400803724349729368966118177243136.00000000
0.90500000, 0.00500000, 18353179026021589514733749160967688091363749309711742560312745661413093015552.00000000
0.91500000, 0.00500000, -24248017780997737469191173328205825355867036509112256607813655647763514261504.00000000
0.92500000, 0.00500000, 29633273221692621679483165580300987994312059931537600774359967322191287025664.00000000
0.93500000, 0.00500000, -36400038124813211675663597248703179789087971990004918724514707637831743832064.00000000
0.94500000, 0.00500000, 49324679825612348566734493412345005302873417639191758465914390939671868735488.00000000
0.95500000, 0.00500000, -65464943086605783878475171121337946593949254734366397295884322027888592289792.00000000
0.96500000, 0.00500000, 50384984967582715453871738191825914728252836333077112443603488562524318597120.00000000
0.97500000, 0.00500000, -100800076740153471076836563709818402421256664140116360673242887865187021357056.00000000
0.98500000, 0.00500000, 119740683047183807160393677843924963024646499498093565284527460015342662713344.00000000
0.99500000, 0.00500000, -135134767205152116787008110149809757012689278895925562546448284510688682967040.00000000
0.00500000, 0.01500000, -209591130802665367748596307540030291177220509595207412417707730841279976701952.00000000
0.01500000, 0.01500000, 229293822850274286085948523734467403641381328586727833051541557018524913762304.00000000
0.02500000, 0.01500000, -245243981388329839255261492461977828978110116726960180289663082991294252843008.00000000
0.03500000, 0.01500000, 266192418957696845440342797147917886303652956714362169225622680182807098032128.00000000
0.04500000, 0.01500000, -276062233133061385746907096294660181278441110882127936645842233318125263126528.00000000
0.05500000, 0.01500000, 270705577307590102678760056027271593010752919284823548826622532710976307855360.00000000
0.06500000, 0.01500000, -261351255622800530940868664256619646553585841711634250889722330212789263532032.00000000
0.07500000, 0.01500000, 244004099001872306288310348675636249884880636936619746188735428909404774203392.00000000
0.08500000, 0.01500000, -216936979869182442119975334645736257356233404145565769501469117717420313673728.00000000
0.09500000, 0.01500000, 187089701564560921293335358897602822399951947260493313013973894468604228796416.00000000
0.10500000, 0.01500000, -157570426105960802427208201337355957867072200732049097807995102625847801020416.00000000
0.11500000, 0.01500000, 130526825531575989192874232221349707334730329660270205873090656742853744525312.00000000
0.12500000, 0.01500000, -109868793418603725480400275501273468011076798540924861889496742941324228952064.00000000
0.13500000, 0.01500000, 96822403108519052169657588530463196776583662705711542314695655504540300476416.00000000
0.14500000, 0.01500000, -90610734491258520722834489541562185658325749779239401878428254235169157808128.00000000
0.15500000, 0.01500000, 94195645073176207373168673388298993645955507316486528192730648696931968090112.00000000
0.16500000, 0.01500000, -111301672399102864651740947951217397382113981067481959793613984312026923532288.00000000
0.17500000, 0.01500000, 148577684543469900128404282392975657683712810313708544932327290827090574704640.00000000
0.18500000, 0.01500000, -216294964419548402322375577106988170921928179656656283278713201893688974770176.00000000
0.19500000, 0.01500000, 329813119168740386738491734444581715438467772135525446442110105093957096570880.00000000
0.20500000, 0.01500000, -480556304895803514387416859804526230578199352448970354928655243831615604916224.00000000
0.21500000, 0.01500000, 703317681307646767529240033744564590064083174557563471590327950085452449447936.00000000
0.22500000, 0.01500000, -1053750986726975100174607956448770289701327841052213109263482226431489914961920.00000000
0.23500000, 0.01500000, 1413805701808130718554065144694209776142075955201130173945291451343957187887104.00000000
0.24500000, 0.01500000, -1815977106345875508366806024282146282046749325546247675058473556941987492397056.00000000
0.25500000, 0.01500000, 2412432708265672345260726743299455316261701924476205840146300659820405939240960.00000000
0.26500000, 0.01500000, -3088228019629630841917987395213281502589815906683214158664053591014115226157056.00000000
0.27500000, 0.01500000, 3788364874978824803594665194117097330900558338799627948226481588637215573934080.00000000
0.28500000, 0.01500000, -4563542779468667677555403258368851768069029831013600857369699757523195020705792.00000000
0.29500000, 0.01500000, 5209499915245776766814515212787719974592292005281197007061728153830497523335168.00000000
0.30500000, 0.01500000, -5804379698683762610561098345072759594292207507289108062605870887243653364842496.00000000
0.31500000, 0.01500000, 6624314245589278080426365356838724590989691966371885096852286069685058025816064.00000000
0.32500000, 0.01500000, -7258372370885869053836814978014237730483405067247230766204003543101594016940032.00000000
0.33500000, 0.01500000, 7269997688781307849479262088398205923061930706729159318744422313674744788942848.00000000
0.34500000, 0.01500000, -7247209337598528157845948001470310702056480084154493206063911313869100541804544.00000000
0.35500000, 0.01500000, 7130966625599082055161128704060370930425205129693360895565932504436525359955968.00000000
0.36500000, 0.01500000, -6431757552577397839680214609372625705642419489962510439062771813477659984265216.00000000
0.37500000, 0.01500000, 5354780801238191149540943820273649607936459000089342853400789528000711897382912.00000000
0.38500000, 0.01500000, -3997110938042439766803407475489468071127638380527746030552776113944579914334208.00000000
0.39500000, 0.01500000, 2507025924096894518337010906155784927023587144209388365373537304687505739612160.00000000
0.40500000, 0.01500000, -1014872667853623477175770394967638605858832726940906810971556024379890349375488.00000000
0.41500000, 0.01500000, -391980317403600415474954884438218883546582807803892044048983508282586217578496.00000000
0.42500000, 0.01500000, 1728365870026944814796645599258413125334956854069738861943154238953579392008192.00000000
0.43500000, 0.01500000, -2894848525296368504962423046788546661992276498753749059240115867521382870941696.00000000
0.44500000, 0.01500000, 3738218366098830828009288044421483773566902657002997359904002243646896511909888.00000000
0.45500000, 0.01500000, -4235137146671349090362548703521049447248721729014257316646617019895528221048832.00000000
0.46500000, 0.01500000, 4386753334665753311240990136941231396068423891265377634878506366908511845089280.00000000
0.47500000, 0.01500000, -4246448404932655017693459804540119564642835349711515270769645697847287995170816.00000000
0.48500000, 0.01500000, 3886384398139317629826903621386029849418236568119648415953171611793757902471168.00000000
0.49500000, 0.01500000, -3383698674960375024414955352556161187737367504182396040570622311081440727531520.00000000
0.50500000, 0.01500000, 2811263309885732397518832001348783160785492435429202246570689935353123430203392.00000000
0.51500000, 0.01500000, -2224327388740365587119998223643655723216879816638405679156614942079482584891392.00000000
0.52500000, 0.01500000, 1662872452328614236445317481916447033594258993821393785218274857176942136786944.00000000
0.53500000, 0.01500000, -1139602779686675295435643153538904718951986807227884267233155533471622482624512.00000000
0.54500000, 0.01500000, 728150101335689724143780358514719768473539161676273566468582949281463237869568.00000000
0.55500000, 0.01500000, -455113797333678036480780265405955720056449038847825970859613888888753960779776.00000000
0.56500000, 0.01500000, 264738322931185551811490813151493673430535555438875283071690901806383137554432.00000000
0.57500000, 0.01500000, -151759845061472181236916668979604203179868491811182472551015019380140106842112.00000000
0.58500000, 0.01500000, 97537109854730251646431797379786894666915962308100453479461714032053020786688.00000000
0.59500000, 0.01500000, -76112875991982692995824952396119504943197188302211666574673029674874836090880.00000000
0.60500000, 0.01500000, 67831423226348967294179170809536849467685388451448274649464764453790754537472.00000000
0.61500000, 0.01500000, -63827887026166634365292496881494927653602079879263549779645284466242975956992.00000000
0.62500000, 0.01500000, 61314427482275401337625937451109790315904424131353200960126444484723776421888.00000000
0.63500000, 0.01500000, -55633357136582937535547298652256045718153168520200064908961030294669969326080.00000000
0.64500000, 0.01500000, 46511546769916310975600275670682843468578759232870110874575142048971016372224.00000000
0.65500000, 0.01500000, -37475746477626985857993764994734277582392932309459485688550668506586530447360.00000000
0.66500000, 0.01500000, 24719047864716401679308023743745511761089215466190274879240634115580074393600.00000000
0.67500000, 0.01500000, -10618692026130219866561507404876793597523846155000505763303984663012587864064.00000000
0.68500000, 0.01500000, 2338957099098411307137413971781523739829931615389085297155801506359745183744.00000000
0.69500000, 0.01500000, 2917196196375187797466707144309358346444435594600790196556607060147655671808.00000000
0.70500000, 0.01500000, -5781046395919721094642373406905037539551700958344611551612723803828009304064.00000000
0.71500000, 0.01500000, 6867339805442164476370953601627410552172805272095330270247535707315429703680.00000000
0.72500000, 0.01500000, -6683631584166981322306733021231452422232802141352518513629705364912434315264.00000000
0.73500000, 0.01500000, 5714990138017884482888404889461494818131600534821475189562804057485585940480.00000000
0.74500000, 0.01500000, -4395666582842250055240401160390620039281525854165237661374980079782304153600.00000000
0.75500000, 0.01500000, 3067962412538652299151770771658608825396022204286344449140173020878314930176.00000000
0.76500000, 0.01500000, -1968421292905310318660301648464216291411853580013755432588961175813146804224.00000000
0.77500000, 0.01500000, 1082359444006381416544422971197712657844139371322822712909967647180790431744.00000000
0.78500000, 0.01500000, -764269180646194371870371530699787263744716778914437083993420441177104056320.00000000
0.79500000, 0.01500000, 562757286498410194983842058133219598253714886703476931083523503471185625088.00000000
0.80500000, 0.01500000, -495408855344702662952208604619557707705682950211710288907486062369063305216.00000000
0.81500000, 0.01500000, 644074403302172713565808683640708956233563676926323263627358812928041025536.00000000
0.82500000, 0.01500000, -1017736376306097369634523191699142981101194221276141511645184573070574092288.00000000
0.83500000, 0.01500000, 1568118139035736464695680854082882154954549755869267154399222419601523474432.00000000
0.84500000, 0.01500000, -2312321814037735045976986732362663852373636894114791746886065189016414715904.00000000
0.85500000, 0.01500000, 3567856813794059996893657330469119954097333232900677471626475970602274390016.00000000
0.86500000, 0.01500000, -5722773534958870715384658366000916001206055717469206436315537431980916342784.00000000
0.87500000, 0.01500000, 7188767081120477192025196738210984807828173891574079480975348808589623951360.00000000
0.88500000, 0.01500000, -10058276649297081337584033528429234408922799633946274497660192727042512388096.00000000
0.89500000, 0.01500000, 15711111760237211192958822424373035531615533002626652516542972825979691466752.00000000
0.90500000, 0.01500000, -22934752050055159854413077450981145931770502805657500279938259772618351575040.00000000
0.91500000, 0.01500000, 31289648643800656790664593095869441702007999010374976241856305643841979940864.00000000
0.92500000, 0.01500000, -36628744886035519224436409340230074218790843921254203341492324755317687582720.00000000
0.93500000, 0.01500000, 48181275678241246588226969616147571332225030441641630491866656775345350377472.00000000
0.94500000, 0.01500000, -59809003637570233222642502041488554155097460432314326473663371937285423497216.00000000
0.95500000, 0.01500000, 76348798252882885463968096404035527293436471235521410999085872851132113485824.00000000
0.96500000, 0.01500000, -102164515988280160908932538992847985240964739987831010727645222401721218629632.00000000
0.97500000, 0.01500000, 78054553368697900540556881905738723760048463108996121349017918836718843199488.00000000
0.98500000, 0.01500000, -162129512994009510673085068552922735670843768017114860580835732084606808096768.00000000
0.99500000, 0.01500000, 184016167423295676965280131053793020200346960133426782471504591154843612086272.00000000
0.00500000, 0.02500000, 322416590392453665663381595682739563982850371155214519106199408177528172445696.00000000
0.01500000, 0.02500000, -378158543434344441564486927809683590181799871319662795577021347950873448284160.00000000
0.02500000, 0.02500000, 429367403045382159287520290019695649482408457878967267120607564344808406253568.00000000
0.03500000, 0.02500000, -460517109390414949844335466354800252719065276974397079797863694362452099596288.00000000
0.04500000, 0.02500000, 467077583411341359053590112021965000721272142293052576255069734924887108091904.00000000
0.05500000, 0.02500000, -457254935782942366702441188494511029741499002400334067879446654150230209986560.00000000
0.06500000, 0.02500000, 436742695247734788717226212431250215445458121994227209429626655988093103898624.00000000
0.07500000, 0.02500000, -401985792243847205425954854920027560218464379166836791285723375470575720857600.00000000
0.08500000, 0.02500000, 357546221144450151530739869803886349034253299214041464407593633619413374599168.00000000
0.09500000, 0.02500000, -307528210496578369852203309040713426883471825811716815339607390821275435794432.00000000
0.10500000, 0.02500000, 257710383932560318545328043519256752744532108213376940421818848242627128590336.00000000
0.11500000, 0.02500000, -212627066765542938701753321728661174094905464499567709656372915275908065001472.00000000
0.12500000, 0.02500000, 175199987669531897169829224851881115727716432420052580295787368794341783896064.00000000
0.13500000, 0.02500000, -145264142545355700289673855172570566145638655014043640771419086992211412254720.00000000
0.14500000, 0.02500000, 123628038917226219034388371723784912582805209712019304555689908478974734893056.00000000
0.15500000, 0.02500000, -111984962298576089192483680166972712524598818478617350401477163750174853431296.00000000
0.16500000, 0.02500000, 113366942378754381725143354473519691112734712551349447738495660381387016372224.00000000
0.17500000, 0.02500000, -132875671647829010669368217750836171053369808821116861033459514074678635266048.00000000
0.18500000, 0.02500000, 178922485587427797875673322055376821320733729761782680911136839141266724749312.00000000
0.19500000, 0.02500000, -263834169844120643410963782081309281780374761382307915605739074508124122513408.00000000
0.20500000, 0.02500000, 394005944725378775272814999009264536362000277591665497576392686752260333502464.00000000
0.21500000, 0.02500000, -588765460841675858534669262619936449336374545622665841838505195552772890558464.00000000
0.22500000, 0.02500000, 849150524839740236333864318194399894106644750567349048256026901060688847831040.00000000
0.23500000, 0.02500000, -1144930476943471256486139539631280168404633776829953783341653036164243708182528.00000000
0.24500000, 0.02500000, 1520304674871463111933171459537054885413482071269033896544695339096751128707072.00000000
0.25500000, 0.02500000, -1982865416507893411393832748698829846843344218559353624618353224059994169671680.00000000
0.26500000, 0.02500000, 2505776220355479649239832940856783427577196968939834070953487580234775384817664.00000000
0.27500000, 0.02500000, -3097000491421937344826304139615556282238640073475460225970129683090225951145984.00000000
0.28500000, 0.02500000, 3739189136325275655242508200284674018615592567850430395574828002065852741451776.00000000
0.29500000, 0.02500000, -4348987105456979449362720082819788010320042741687337600496532663412289213300736.00000000
0.30500000, 0.02500000, 4934742421734629433825702676433756192719549194091678902655935489004869708152832.00000000
0.31500000, 0.02500000, -5430086583345849428753937665447256412737090227386002237776010794055779619962880.00000000
0.32500000, 0.02500000, 5690782656179723099926364190462070958292509825396889815146261876959011730882560.00000000
0.33500000, 0.02500000, -5698270421223463797339333033536706259781272034954157136979380023707956838137856.00000000
0.34500000, 0.02500000, 5592237011307562520921702531628872286087592072111367960782837352067890554077184.00000000
0.35500000, 0.02500000, -5175736784080968983619640617639145744246572544233470759112971619582997765816320.00000000
0.36500000, 0.02500000, 4474861829815025974688649041315567527586020271435401272396657945725237710553088.00000000
0.37500000, 0.02500000, -3524382354065651264990698153254970065912306301550652277706594034307030793060352.00000000
0.38500000, 0.02500000, 2420486075453223093359565864775296789652034760652286243168851204769654455140352.00000000
0.39500000, 0.02500000, -1267621876340728850406578087205090906151717162783459590876196152923802101088256.00000000
0.40500000, 0.02500000, 139265911914802634167904519708078808455674776146449776595817732506839500718080.00000000
0.41500000, 0.02500000, 917085883794788861231206772152484183316424402258325988384003596744966769999872.00000000
0.42500000, 0.02500000, -1873777834828258159281276931711948350741487049286360964649834108881412129030144.00000000
0.43500000, 0.02500000, 2647029846732558647858745120562241386432066628696449337434842757238598014074880.00000000
0.44500000, 0.02500000, -3188022376510906092104379417969188575405629152898897087251196342237096428175360.00000000
0.45500000, 0.02500000, 3462045629960710886425321362184133309998241703564533571990421598135333330878464.00000000
0.46500000, 0.02500000, -3477271300894925059292005946188198104906490910942440373739086726477458572312576.00000000
0.47500000, 0.02500000, 3280458807631463036528949388875163424557713524445524472346427823720455896825856.00000000
0.48500000, 0.02500000, -2936846763891070249114916925099986094401890931037876695591034804308645391630336.00000000
0.49500000, 0.02500000, 2511376637486192260735056059656764099773033329038548293078824289988400694427648.00000000
0.50500000, 0.02500000, -2056811799532129809308974847461666297663912238724736958574734494558785705607168.00000000
0.51500000, 0.02500000, 1613234534708473925341672419262178578326634902565930991142800285848641157988352.00000000
0.52500000, 0.02500000, -1213996087524653714058816555023136364715530964246291419809662361043974104285184.00000000
0.53500000, 0.02500000, 879335514612195748558572865480089545312713459682993278263939089190081408270336.00000000
0.54500000, 0.02500000, -638184994190180819739186876646077504496828413333426916482429146813586913361920.00000000
0.55500000, 0.02500000, 473402114062259624970356121247869760727341490879346572426543001242587468136448.00000000
0.56500000, 0.02500000, -371685434841893082198144249487441423736606795531182151894804749997218784608256.00000000
0.57500000, 0.02500000, 316793688591439461798689525101912126686826485966232729677796195938179968139264.00000000
0.58500000, 0.02500000, -288421250982705326813891826603110097016587705089082321775295842077273969655808.00000000
0.59500000, 0.02500000, 270405510290394714910382135563794440736643827224575627806655169411752497512448.00000000
0.60500000, 0.02500000, -251222348524128792351539440249071009369506113367804861518712221671556217044992.00000000
0.61500000, 0.02500000, 228235097874194358688607751797177884918822700419423605018076974227127112040448.00000000
0.62500000, 0.02500000, -201279300092524699727739541948650866411545887509031083925398199448496475471872.00000000
0.63500000, 0.02500000, 171887393459104560793782423672995767518438023346998425596683654135978389405696.00000000
0.64500000, 0.02500000, -140873631549959301254578000790161119040271934252237477064292384142367347703808.00000000