TITLE = "Linear advection equation"
VARIABLES = "x", "y", "sol"
ZONE STRANDID=1, SOLUTIONTIME=0.05, I=100, J=100, DATAPACKING=POINT
0.00500000, 0.00500000, 0.07212173
0.01500000, 0.00500000, 0.04209050
0.02500000, 0.00500000, 0.02468435
0.03500000, 0.00500000, 0.00718078
0.04500000, 0.00500000, -0.01035112
0.05500000, 0.00500000, -0.02784218
0.06500000, 0.00500000, -0.04522336
0.07500000, 0.00500000, 0.36369251
0.08500000, 0.00500000, -0.93161952
0.09500000, 0.00500000, 0.33009313
0.10500000, 0.00500000, -0.11228952
0.11500000, 0.00500000, -0.12811044
0.12500000, 0.00500000, 0.52026946
0.13500000, 0.00500000, -1.48556552
0.14500000, 0.00500000, 0.49139511
0.15500000, 0.00500000, -0.18574517
0.16500000, 0.00500000, -0.19845718
0.17500000, 0.00500000, -0.21038597
0.18500000, 0.00500000, -0.22148446
0.19500000, 0.00500000, -0.23170885
0.20500000, 0.00500000, -0.24101880
0.21500000, 0.00500000, -0.24937755
0.22500000, 0.00500000, -0.25675212
0.23500000, 0.00500000, -0.26311341
0.24500000, 0.00500000, -0.26843632
0.25500000, 0.00500000, -0.27269982
0.26500000, 0.00500000, -0.27588711
0.27500000, 0.00500000, -0.27798559
0.28500000, 0.00500000, -0.27898699
0.29500000, 0.00500000, -0.27888736
0.30500000, 0.00500000, -0.27768709
0.31500000, 0.00500000, -0.27539091
0.32500000, 0.00500000, -0.27200789
0.33500000, 0.00500000, -0.26755138
0.34500000, 0.00500000, 0.13561622
0.35500000, 0.00500000, -0.65314760
0.36500000, 0.00500000, -0.24793754
0.37500000, 0.00500000, -0.23940417
0.38500000, 0.00500000, -0.22992598
0.39500000, 0.00500000, -0.45025897
0.40500000, 0.00500000, 0.48386744
0.41500000, 0.00500000, -0.82441259
0.42500000, 0.00500000, 0.13955922
0.43500000, 0.00500000, -0.26200033
0.44500000, 0.00500000, -0.21950915
0.45500000, 0.00500000, -0.24571711
0.46500000, 0.00500000, 0.18978034
0.47500000, 0.00500000, -0.42444308
0.48500000, 0.00500000, 0.01198048
0.49500000, 0.00500000, -0.07633643
0.50500000, 0.00500000, -0.05933054
0.51500000, 0.00500000, -0.04209050
0.52500000, 0.00500000, -0.02468435
0.53500000, 0.00500000, -0.00718078
0.54500000, 0.00500000, 0.01035112
0.55500000, 0.00500000, 0.02784218
0.56500000, 0.00500000, 0.04522336
0.57500000, 0.00500000, 0.06242606
0.58500000, 0.00500000, 0.07938239
0.59500000, 0.00500000, 0.09602544
0.60500000, 0.00500000, 0.11228952
0.61500000, 0.00500000, 0.12811044
0.62500000, 0.00500000, 0.14342577
0.63500000, 0.00500000, 0.15817506
0.64500000, 0.00500000, 0.17230011
0.65500000, 0.00500000, 0.18574517
0.66500000, 0.00500000, 0.19845718
0.67500000, 0.00500000, 0.21038597
0.68500000, 0.00500000, 0.22148446
0.69500000, 0.00500000, 0.23170885
0.70500000, 0.00500000, 0.24101880
0.71500000, 0.00500000, 0.24937755
0.72500000, 0.00500000, 0.25675212
0.73500000, 0.00500000, 0.26311341
0.74500000, 0.00500000, 0.26843632
0.75500000, 0.00500000, 0.27269982
0.76500000, 0.00500000, 0.27588711
0.77500000, 0.00500000, 0.27798559
0.78500000, 0.00500000, 0.27898699
0.79500000, 0.00500000, 0.27888736
0.80500000, 0.00500000, 0.27768709
0.81500000, 0.00500000, 0.30433492
0.82500000, 0.00500000, 0.18517588
0.83500000, 0.00500000, 0.53014285
0.84500000, 0.00500000, 0.31315149
0.85500000, 0.00500000, 0.36904839
0.86500000, 0.00500000, 0.32799406
0.87500000, 0.00500000, 0.23940417
0.88500000, 0.00500000, 0.22992598
0.89500000, 0.00500000, 0.21954038
0.90500000, 0.00500000, 0.20828835
0.91500000, 0.00500000, -0.00634874
0.92500000, 0.00500000, 0.33462206
0.93500000, 0.00500000, 0.22110070
0.94500000, 0.00500000, 0.26508094
0.95500000, 0.00500000, 0.14069558
0.96500000, 0.00500000, 0.07407661
0.97500000, 0.00500000, 0.16058613
0.98500000, 0.00500000, 0.10583224
0.99500000, 0.00500000, 0.05075405
0.00500000, 0.01500000, 0.04209050
0.01500000, 0.01500000, 0.02854981
0.02500000, 0.01500000, 0.01489645
0.03500000, 0.01500000, 0.00118430
0.04500000, 0.01500000, -0.01253252
0.05500000, 0.01500000, -0.02619989
0.06500000, 0.01500000, -0.03976386
0.07500000, 0.01500000, -0.33724994
0.08500000, 0.01500000, 0.21771096
0.09500000, 0.01500000, -0.07930336
0.10500000, 0.01500000, -0.09192566
0.11500000, 0.01500000, -0.10418516
0.12500000, 0.01500000, -0.55849698
0.13500000, 0.01500000, 0.31503958
0.14500000, 0.01500000, -0.13831143
0.15500000, 0.01500000, -0.14865310
0.16500000, 0.01500000, -0.15840810
0.17500000, 0.01500000, -0.16753794
0.18500000, 0.01500000, -0.17600658
0.19500000, 0.01500000, -0.18378061
0.20500000, 0.01500000, -0.19082934
0.21500000, 0.01500000, -0.19712495
0.22500000, 0.01500000, -0.20264260
0.23500000, 0.01500000, -0.20736051
0.24500000, 0.01500000, -0.21126007
0.25500000, 0.01500000, -0.21432587
0.26500000, 0.01500000, -0.21654584
0.27500000, 0.01500000, -0.21791119
0.28500000, 0.01500000, -0.21841655
0.29500000, 0.01500000, -0.21805992
0.30500000, 0.01500000, -0.21684270
0.31500000, 0.01500000, -0.21476971
0.32500000, 0.01500000, -0.21184911
0.33500000, 0.01500000, -0.20809245
0.34500000, 0.01500000, -0.33606627
0.35500000, 0.01500000, -0.19813345
0.36500000, 0.01500000, -0.19197042
0.37500000, 0.01500000, -0.18504977
0.38500000, 0.01500000, -0.17739881
0.39500000, 0.01500000, 0.17703015
0.40500000, 0.01500000, -0.85218531
0.41500000, 0.01500000, 0.09976190
0.42500000, 0.01500000, -0.01928370
0.43500000, 0.01500000, -0.22527641
0.44500000, 0.01500000, -0.11803338
0.45500000, 0.01500000, 0.05127151
0.46500000, 0.01500000, -0.40913342
0.47500000, 0.01500000, 0.07602667
0.48500000, 0.01500000, -0.06862076
0.49500000, 0.01500000, -0.05546508
0.50500000, 0.01500000, -0.04209050
0.51500000, 0.01500000, -0.02854981
0.52500000, 0.01500000, -0.01489645
0.53500000, 0.01500000, -0.00118430
0.54500000, 0.01500000, 0.01253252
0.55500000, 0.01500000, 0.02619989
0.56500000, 0.01500000, 0.03976386
0.57500000, 0.01500000, 0.05317089
0.58500000, 0.01500000, 0.06636809
0.59500000, 0.01500000, 0.07930336
0.60500000, 0.01500000, 0.09192566
0.61500000, 0.01500000, 0.10418516
0.62500000, 0.01500000, 0.11603350
0.63500000, 0.01500000, 0.12742391
0.64500000, 0.01500000, 0.13831143
0.65500000, 0.01500000, 0.14865310
0.66500000, 0.01500000, 0.15840810
0.67500000, 0.01500000, 0.16753794
0.68500000, 0.01500000, 0.17600658
0.69500000, 0.01500000, 0.18378061
0.70500000, 0.01500000, 0.19082934
0.71500000, 0.01500000, 0.19712495
0.72500000, 0.01500000, 0.20264260
0.73500000, 0.01500000, 0.20736051
0.74500000, 0.01500000, 0.21126007
0.75500000, 0.01500000, 0.21432587
0.76500000, 0.01500000, 0.21654584
0.77500000, 0.01500000, 0.21791119
0.78500000, 0.01500000, 0.21841655
0.79500000, 0.01500000, 0.21805992
0.80500000, 0.01500000, 0.21684270
0.81500000, 0.01500000, 0.12793769
0.82500000, 0.01500000, 0.38551314
0.83500000, 0.01500000, 0.12126044
0.84500000, 0.01500000, 0.04340150
0.85500000, 0.01500000, 0.35824650
0.86500000, 0.01500000, 0.19197042
0.87500000, 0.01500000, 0.18504977
0.88500000, 0.01500000, 0.17739881
0.89500000, 0.01500000, 0.16904774
0.90500000, 0.01500000, 0.16002952
0.91500000, 0.01500000, 0.28290078
0.92500000, 0.01500000, 0.24275023
0.93500000, 0.01500000, 0.12934015
0.94500000, 0.01500000, 0.11803338
0.95500000, 0.01500000, 0.10626079
0.96500000, 0.01500000, 0.14527647
0.97500000, 0.01500000, 0.08150563
0.98500000, 0.01500000, 0.04303838
0.99500000, 0.01500000, 0.08104746
0.00500000, 0.02500000, 0.02468435
0.01500000, 0.02500000, 0.01489645
0.02500000, 0.02500000, 0.00504976
0.03500000, 0.02500000, -0.00481686
0.04500000, 0.02500000, -0.01466446
0.05500000, 0.02500000, -0.02445420
0.06500000, 0.02500000, -0.03414743
0.07500000, 0.02500000, 0.02731387
0.08500000, 0.02500000, -0.05309186
0.09500000, 0.02500000, -0.06226830
0.10500000, 0.02500000, -0.07119901
0.11500000, 0.02500000, -0.07984872
0.12500000, 0.02500000, 0.02243257
0.13500000, 0.02500000, -0.09616986
0.14500000, 0.02500000, -0.10377689
0.15500000, 0.02500000, -0.11097436
0.16500000, 0.02500000, -0.11773386
0.17500000, 0.02500000, -0.12402872
0.18500000, 0.02500000, -0.12983409
0.19500000, 0.02500000, -0.13512707
0.20500000, 0.02500000, -0.13988676
0.21500000, 0.02500000, -0.14409439
0.22500000, 0.02500000, -0.14773334
0.23500000, 0.02500000, -0.15078925
0.24500000, 0.02500000, -0.15325007
0.25500000, 0.02500000, -0.15510608
0.26500000, 0.02500000, -0.15634996
0.27500000, 0.02500000, -0.15697679
0.28500000, 0.02500000, -0.15698411
0.29500000, 0.02500000, -0.15637189
0.30500000, 0.02500000, -0.15514253
0.31500000, 0.02500000, -0.15330090
0.32500000, 0.02500000, -0.15085426
0.33500000, 0.02500000, -0.14781227
0.34500000, 0.02500000, -0.14418693
0.35500000, 0.02500000, -0.13999255
0.36500000, 0.02500000, -0.13524569
0.37500000, 0.02500000, -0.12996507
0.38500000, 0.02500000, -0.12417154
0.39500000, 0.02500000, -0.34860655
0.40500000, 0.02500000, 0.11957947
0.41500000, 0.02500000, -0.03999417
0.42500000, 0.02500000, -0.16031150
0.43500000, 0.02500000, -0.08837603
0.44500000, 0.02500000, -0.08004929
0.45500000, 0.02500000, -0.17642816
0.46500000, 0.02500000, 0.04253937
0.47500000, 0.02500000, -0.05331111
0.48500000, 0.02500000, -0.04392966
0.49500000, 0.02500000, -0.03437484
0.50500000, 0.02500000, -0.02468435
0.51500000, 0.02500000, -0.01489645
0.52500000, 0.02500000, -0.00504976
0.53500000, 0.02500000, 0.00481686
0.54500000, 0.02500000, 0.01466446
0.55500000, 0.02500000, 0.02445420
0.56500000, 0.02500000, 0.03414743
0.57500000, 0.02500000, 0.04370589
0.58500000, 0.02500000, 0.05309186
0.59500000, 0.02500000, 0.06226830
0.60500000, 0.02500000, 0.07119901
0.61500000, 0.02500000, 0.07984872
0.62500000, 0.02500000, 0.08818330
0.63500000, 0.02500000, 0.09616986
0.64500000, 0.02500000, 0.10377689
0.65500000, 0.02500000, 0.11097436
0.66500000, 0.02500000, 0.11773386
0.67500000, 0.02500000, 0.12402872
0.68500000, 0.02500000, 0.12983409
0.69500000, 0.02500000, 0.13512707
0.70500000, 0.02500000, 0.13988676
0.71500000, 0.02500000, 0.14409439
0.72500000, 0.02500000, 0.14773334
0.73500000, 0.02500000, 0.15078925
0.74500000, 0.02500000, 0.15325007
0.75500000, 0.02500000, 0.15510608
0.76500000, 0.02500000, 0.15634996
0.77500000, 0.02500000, 0.12558300
0.78500000, 0.02500000, 0.18837790
0.79500000, 0.02500000, 0.15637189
0.80500000, 0.02500000, 0.15514253
0.81500000, 0.02500000, 0.24013292
0.82500000, 0.02500000, 0.06402225
0.83500000, 0.02500000, 0.14781227
0.84500000, 0.02500000, 0.22424345
0.85500000, 0.02500000, 0.13999255
0.86500000, 0.02500000, 0.13524569
0.87500000, 0.02500000, 0.12996507
0.88500000, 0.02500000, 0.12417154
0.89500000, 0.02500000, 0.04848911
0.90500000, 0.02500000, 0.31933567
0.91500000, 0.02500000, -0.05293798
0.92500000, 0.02500000, 0.16575283
0.93500000, 0.02500000, 0.08837603
0.94500000, 0.02500000, 0.08004929
0.95500000, 0.02500000, 0.07140663
0.96500000, 0.02500000, 0.06248216
0.97500000, 0.02500000, 0.05331111
0.98500000, 0.02500000, 0.05672085
0.99500000, 0.02500000, 0.03437484
0.00500000, 0.03500000, 0.00718078
0.01500000, 0.03500000, 0.00118430
0.02500000, 0.03500000, -0.00481686
0.03500000, 0.03500000, -0.01079900
0.04500000, 0.03500000, -0.01673853
0.05500000, 0.03500000, -0.02261200
0.06500000, 0.03500000, -0.02839623
0.07500000, 0.03500000, -0.03406839
0.08500000, 0.03500000, -0.03960610
0.09500000, 0.03500000, -0.04498751
0.10500000, 0.03500000, -0.05019136
0.11500000, 0.03500000, -0.05519714
0.12500000, 0.03500000, -0.05998508
0.13500000, 0.03500000, -0.06453628
0.14500000, 0.03500000, -0.06883279
0.15500000, 0.03500000, -0.07285765
0.16500000, 0.03500000, -0.07659497
0.17500000, 0.03500000, -0.08003001
0.18500000, 0.03500000, -0.08314920
0.19500000, 0.03500000, -0.08594024
0.20500000, 0.03500000, -0.08839212
0.21500000, 0.03500000, -0.09049515
0.22500000, 0.03500000, -0.09224104
0.23500000, 0.03500000, -0.09362290
0.24500000, 0.03500000, -0.09463527
0.25500000, 0.03500000, -0.09527415
0.26500000, 0.03500000, -0.09553704
0.27500000, 0.03500000, -0.09542288
0.28500000, 0.03500000, -0.09493213
0.29500000, 0.03500000, -0.09406673
0.30500000, 0.03500000, -0.09283009
0.31500000, 0.03500000, -0.09122709
0.32500000, 0.03500000, -0.08926406
0.33500000, 0.03500000, -0.08694875
0.34500000, 0.03500000, -0.08429028
0.35500000, 0.03500000, -0.08129917
0.36500000, 0.03500000, -0.07798720
0.37500000, 0.03500000, -0.07436745
0.38500000, 0.03500000, -0.07045421
0.39500000, 0.03500000, -0.00858327
0.40500000, 0.03500000, -0.06181012
0.41500000, 0.03500000, -0.07310276
0.42500000, 0.03500000, -0.05219124
0.43500000, 0.03500000, -0.04706313
0.44500000, 0.03500000, -0.04174928
0.45500000, 0.03500000, -0.01001528
0.46500000, 0.03500000, -0.03064890
0.47500000, 0.03500000, -0.02490619
0.48500000, 0.03500000, -0.01906518
0.49500000, 0.03500000, -0.01314893
0.50500000, 0.03500000, -0.00718078
0.51500000, 0.03500000, -0.00118430
0.52500000, 0.03500000, 0.00481686
0.53500000, 0.03500000, 0.01079900
0.54500000, 0.03500000, 0.01673853
0.55500000, 0.03500000, 0.02261200
0.56500000, 0.03500000, 0.02839623
0.57500000, 0.03500000, 0.03406839
0.58500000, 0.03500000, 0.03960610
0.59500000, 0.03500000, 0.04498751
0.60500000, 0.03500000, 0.05019136
0.61500000, 0.03500000, 0.05519714
0.62500000, 0.03500000, 0.05998508
0.63500000, 0.03500000, 0.06453628
0.64500000, 0.03500000, 0.06883279
0.65500000, 0.03500000, 0.07285765
0.66500000, 0.03500000, 0.07659497
0.67500000, 0.03500000, 0.08003001
0.68500000, 0.03500000, 0.08314920
0.69500000, 0.03500000, 0.08594024
0.70500000, 0.03500000, 0.08839212
0.71500000, 0.03500000, 0.09049515
0.72500000, 0.03500000, 0.09224104
0.73500000, 0.03500000, 0.09362290
0.74500000, 0.03500000, 0.09463527
0.75500000, 0.03500000, 0.09527415
0.76500000, 0.03500000, 0.09553704
0.77500000, 0.03500000, 0.15821633
0.78500000, 0.03500000, 0.06353247
0.79500000, 0.03500000, 0.09406673
0.80500000, 0.03500000, 0.09283009
0.81500000, 0.03500000, 0.06228308
0.82500000, 0.03500000, 0.08926406
0.83500000, 0.03500000, 0.08694875
0.84500000, 0.03500000, 0.08429028
0.85500000, 0.03500000, 0.08129917
0.86500000, 0.03500000, 0.07798720
0.87500000, 0.03500000, 0.07436745
0.88500000, 0.03500000, 0.07045421
0.89500000, 0.03500000, 0.16101764
0.90500000, 0.03500000, -0.01425751
0.91500000, 0.03500000, -0.07501554
0.92500000, 0.03500000, 0.22964937
0.93500000, 0.03500000, -0.08096948
0.94500000, 0.03500000, 0.10576559
0.95500000, 0.03500000, 0.03627066
0.96500000, 0.03500000, 0.03064890
0.97500000, 0.03500000, 0.02490619
0.98500000, 0.03500000, 0.01906518
0.99500000, 0.03500000, 0.01314893
0.00500000, 0.04500000, -0.01035112
0.01500000, 0.04500000, -0.01253252
0.02500000, 0.04500000, -0.01466446
0.03500000, 0.04500000, -0.01673853
0.04500000, 0.04500000, -0.01874654
0.05500000, 0.04500000, -0.02068056
0.06500000, 0.04500000, -0.02253297
0.07500000, 0.04500000, -0.02429645
0.08500000, 0.04500000, -0.02596404
0.09500000, 0.04500000, -0.02752916
0.10500000, 0.04500000, -0.02898564
0.11500000, 0.04500000, -0.03032773
0.12500000, 0.04500000, -0.03155012
0.13500000, 0.04500000, -0.03264801
0.14500000, 0.04500000, -0.03361704
0.15500000, 0.04500000, -0.03445341
0.16500000, 0.04500000, -0.03515380
0.17500000, 0.04500000, -0.03571546
0.18500000, 0.04500000, -0.03613616
0.19500000, 0.04500000, -0.03641425
0.20500000, 0.04500000, -0.03654863
0.21500000, 0.04500000, -0.03653877
0.22500000, 0.04500000, -0.03638471
0.23500000, 0.04500000, -0.03608705
0.24500000, 0.04500000, -0.03564698
0.25500000, 0.04500000, -0.03506622
0.26500000, 0.04500000, -0.03434707
0.27500000, 0.04500000, -0.03349237
0.28500000, 0.04500000, -0.03250549
0.29500000, 0.04500000, -0.03139033
0.30500000, 0.04500000, -0.03015128
0.31500000, 0.04500000, -0.02879324
0.32500000, 0.04500000, -0.02732157
0.33500000, 0.04500000, -0.02574207
0.34500000, 0.04500000, -0.02406098
0.35500000, 0.04500000, -0.02228493
0.36500000, 0.04500000, -0.02042093
0.37500000, 0.04500000, -0.01847634
0.38500000, 0.04500000, -0.01645884
0.39500000, 0.04500000, -0.01437637
0.40500000, 0.04500000, -0.01223717
0.41500000, 0.04500000, -0.01004968
0.42500000, 0.04500000, -0.00782252
0.43500000, 0.04500000, -0.00556449
0.44500000, 0.04500000, -0.00328451
0.45500000, 0.04500000, -0.00099155
0.46500000, 0.04500000, 0.00130531
0.47500000, 0.04500000, 0.00359702
0.48500000, 0.04500000, 0.00587454
0.49500000, 0.04500000, 0.00812887
0.50500000, 0.04500000, 0.01035112
0.51500000, 0.04500000, 0.01253252
0.52500000, 0.04500000, 0.01466446
0.53500000, 0.04500000, 0.01673853
0.54500000, 0.04500000, 0.01874654
0.55500000, 0.04500000, 0.02068056
0.56500000, 0.04500000, 0.02253297
0.57500000, 0.04500000, 0.02429645
0.58500000, 0.04500000, 0.02596404
0.59500000, 0.04500000, 0.02752916
0.60500000, 0.04500000, 0.02898564
0.61500000, 0.04500000, 0.03032773
0.62500000, 0.04500000, 0.03155012
0.63500000, 0.04500000, 0.03264801
0.64500000, 0.04500000, 0.03361704
0.65500000, 0.04500000, 0.03445341
0.66500000, 0.04500000, 0.03515380
0.67500000, 0.04500000, 0.03571546
0.68500000, 0.04500000, 0.03613616
0.69500000, 0.04500000, 0.03641425
0.70500000, 0.04500000, 0.03654863
0.71500000, 0.04500000, 0.03653877
0.72500000, 0.04500000, 0.03638471
0.73500000, 0.04500000, 0.03608705
0.74500000, 0.04500000, 0.03564698
0.75500000, 0.04500000, 0.03506622
0.76500000, 0.04500000, 0.03434707
0.77500000, 0.04500000, 0.00209271
0.78500000, 0.04500000, 0.03250549
0.79500000, 0.04500000, 0.03139033
0.80500000, 0.04500000, 0.03015128
0.81500000, 0.04500000, 0.02879324
0.82500000, 0.04500000, 0.02732157
0.83500000, 0.04500000, 0.02574207
0.84500000, 0.04500000, -0.01130078
0.85500000, 0.04500000, 0.30852938
0.86500000, 0.04500000, -0.12270129
0.87500000, 0.04500000, 0.01847634
0.88500000, 0.04500000, 0.01645884
0.89500000, 0.04500000, 0.14650529
0.90500000, 0.04500000, -0.46021720
0.91500000, 0.04500000, 0.35037514
0.92500000, 0.04500000, -0.12021009
0.93500000, 0.04500000, 0.13359711
0.94500000, 0.04500000, 0.00328451
0.95500000, 0.04500000, 0.00099155
0.96500000, 0.04500000, -0.00130531
0.97500000, 0.04500000, -0.00359702
0.98500000, 0.04500000, -0.00587454
0.99500000, 0.04500000, -0.00812887
0.00500000, 0.05500000, -0.02784218
0.01500000, 0.05500000, -0.02619989
0.02500000, 0.05500000, -0.02445420
0.03500000, 0.05500000, -0.02261200
0.04500000, 0.05500000, -0.02068056
0.05500000, 0.05500000, -0.01866751
0.06500000, 0.05500000, -0.01658078
0.07500000, 0.05500000, -0.01442861
0.08500000, 0.05500000, -0.01221951
0.09500000, 0.05500000, -0.00996218
0.10500000, 0.05500000, -0.00766553
0.11500000, 0.05500000, -0.00533863
0.12500000, 0.05500000, -0.00299066
0.13500000, 0.05500000, -0.00063088
0.14500000, 0.05500000, 0.00173138
0.15500000, 0.05500000, 0.00408681
0.16500000, 0.05500000, 0.00642611
0.17500000, 0.05500000, 0.00874005
0.18500000, 0.05500000, 0.01101950
0.19500000, 0.05500000, 0.01325545
0.20500000, 0.05500000, 0.01543910
0.21500000, 0.05500000, 0.01756181
0.22500000, 0.05500000, 0.01961522
0.23500000, 0.05500000, 0.02159121
0.24500000, 0.05500000, 0.02348199
0.25500000, 0.05500000, 0.02528010
0.26500000, 0.05500000, 0.02697844
0.27500000, 0.05500000, 0.02857031
0.28500000, 0.05500000, 0.03004943
0.29500000, 0.05500000, 0.03140995
0.30500000, 0.05500000, 0.03264651
0.31500000, 0.05500000, 0.03375423
0.32500000, 0.05500000, 0.03472874
0.33500000, 0.05500000, 0.03556619
0.34500000, 0.05500000, 0.03626328
0.35500000, 0.05500000, 0.03681725
0.36500000, 0.05500000, 0.03722593
0.37500000, 0.05500000, 0.03748768
0.38500000, 0.05500000, 0.03760150
0.39500000, 0.05500000, 0.03756691
0.40500000, 0.05500000, 0.03738407
0.41500000, 0.05500000, 0.03705369
0.42500000, 0.05500000, 0.03657707
0.43500000, 0.05500000, 0.03595610
0.44500000, 0.05500000, 0.03519323
0.45500000, 0.05500000, 0.03429147
0.46500000, 0.05500000, 0.03325437
0.47500000, 0.05500000, 0.03208604
0.48500000, 0.05500000, 0.03079107
0.49500000, 0.05500000, 0.02937459
0.50500000, 0.05500000, 0.02784218
0.51500000, 0.05500000, 0.02619989
0.52500000, 0.05500000, 0.02445420
0.53500000, 0.05500000, 0.02261200
0.54500000, 0.05500000, 0.02068056
0.55500000, 0.05500000, 0.01866751
0.56500000, 0.05500000, 0.01658078
0.57500000, 0.05500000, 0.01442861
0.58500000, 0.05500000, 0.01221951
0.59500000, 0.05500000, 0.00996218
0.60500000, 0.05500000, 0.00766553
0.61500000, 0.05500000, 0.00533863
0.62500000, 0.05500000, 0.00299066
0.63500000, 0.05500000, 0.00063088
0.64500000, 0.05500000, -0.00173138
0.65500000, 0.05500000, -0.00408681
0.66500000, 0.05500000, -0.00642611
0.67500000, 0.05500000, -0.00874005
0.68500000, 0.05500000, -0.01101950
0.69500000, 0.05500000, -0.01325545
0.70500000, 0.05500000, -0.01543910
0.71500000, 0.05500000, -0.01756181
0.72500000, 0.05500000, -0.01961522
0.73500000, 0.05500000, -0.02159121
0.74500000, 0.05500000, -0.02348199
0.75500000, 0.05500000, -0.02528010
0.76500000, 0.05500000, -0.02697844
0.77500000, 0.05500000, -0.02857031
0.78500000, 0.05500000, -0.03004943
0.79500000, 0.05500000, -0.03140995
0.80500000, 0.05500000, -0.03264651
0.81500000, 0.05500000, -0.03375423
0.82500000, 0.05500000, -0.03472874
0.83500000, 0.05500000, -0.03556619
0.84500000, 0.05500000, 0.24998117
0.85500000, 0.05500000, -0.32306170
0.86500000, 0.05500000, -0.03722593
0.87500000, 0.05500000, -0.03748768
0.88500000, 0.05500000, -0.03760150
0.89500000, 0.05500000, -0.30849352
0.90500000, 0.05500000, 0.30294139
0.91500000, 0.05500000, -0.03705369
0.92500000, 0.05500000, 0.02743924
0.93500000, 0.05500000, -0.03595610
0.94500000, 0.05500000, -0.03519323
0.95500000, 0.05500000, -0.03429147
0.96500000, 0.05500000, -0.03325437
0.97500000, 0.05500000, -0.03208604
0.98500000, 0.05500000, -0.03079107
0.99500000, 0.05500000, -0.02937459
0.00500000, 0.06500000, -0.04522336
0.01500000, 0.06500000, -0.03976386
0.02500000, 0.06500000, -0.03414743
0.03500000, 0.06500000, -0.02839623
0.04500000, 0.06500000, -0.02253297
0.05500000, 0.06500000, -0.01658078
0.06500000, 0.06500000, -0.01056315
0.07500000, 0.06500000, -0.00450384
0.08500000, 0.06500000, 0.00157325
0.09500000, 0.06500000, 0.00764413
0.10500000, 0.06500000, 0.01368484
0.11500000, 0.06500000, 0.01967155
0.12500000, 0.06500000, 0.02558061
0.13500000, 0.06500000, 0.03138873
0.14500000, 0.06500000, 0.03707297
0.15500000, 0.06500000, 0.04261089
0.16500000, 0.06500000, 0.04798066
0.17500000, 0.06500000, 0.05316106
0.18500000, 0.06500000, 0.05813166
0.19500000, 0.06500000, 0.06287284
0.20500000, 0.06500000, 0.06736590
0.21500000, 0.06500000, 0.07159308
0.22500000, 0.06500000, 0.07553773
0.23500000, 0.06500000, 0.07918426
0.24500000, 0.06500000, 0.08251829
0.25500000, 0.06500000, 0.08552665
0.26500000, 0.06500000, 0.08819748
0.27500000, 0.06500000, 0.09052024
0.28500000, 0.06500000, 0.09248575
0.29500000, 0.06500000, 0.09408627
0.30500000, 0.06500000, 0.09531547
0.31500000, 0.06500000, 0.09616850
0.32500000, 0.06500000, 0.09664200
0.33500000, 0.06500000, 0.09673410
0.34500000, 0.06500000, 0.09644443
0.35500000, 0.06500000, 0.09577414
0.36500000, 0.06500000, 0.09472587
0.37500000, 0.06500000, 0.09330377
0.38500000, 0.06500000, 0.09151343
0.39500000, 0.06500000, 0.08936194
0.40500000, 0.06500000, 0.08685777
0.41500000, 0.06500000, 0.08401082
0.42500000, 0.06500000, 0.08083231
0.43500000, 0.06500000, 0.07733479
0.44500000, 0.06500000, 0.07353207
0.45500000, 0.06500000, 0.06943916
0.46500000, 0.06500000, 0.06507220
0.47500000, 0.06500000, 0.06044842
0.48500000, 0.06500000, 0.05558609
0.49500000, 0.06500000, 0.05050438
0.50500000, 0.06500000, 0.04522336
0.51500000, 0.06500000, 0.03976386
0.52500000, 0.06500000, 0.03414743
0.53500000, 0.06500000, 0.02839623
0.54500000, 0.06500000, 0.02253297
0.55500000, 0.06500000, 0.01658078
0.56500000, 0.06500000, 0.01056315
0.57500000, 0.06500000, 0.00450384
0.58500000, 0.06500000, -0.00157325
0.59500000, 0.06500000, -0.00764413
0.60500000, 0.06500000, -0.01368484
0.61500000, 0.06500000, -0.01967155
0.62500000, 0.06500000, -0.02558061
0.63500000, 0.06500000, -0.03138873
0.64500000, 0.06500000, -0.03707297
0.65500000, 0.06500000, -0.04261089
0.66500000, 0.06500000, -0.04798066
0.67500000, 0.06500000, -0.05316106
0.68500000, 0.06500000, -0.05813166
0.69500000, 0.06500000, -0.06287284
0.70500000, 0.06500000, -0.06736590
0.71500000, 0.06500000, -0.07159308
0.72500000, 0.06500000, -0.07553773
0.73500000, 0.06500000, -0.07918426
0.74500000, 0.06500000, -0.08251829
0.75500000, 0.06500000, -0.08552665
0.76500000, 0.06500000, -0.30223072
0.77500000, 0.06500000, 0.34156163
0.78500000, 0.06500000, -0.31053439
0.79500000, 0.06500000, -0.09408627
0.80500000, 0.06500000, -0.09531547
0.81500000, 0.06500000, -0.09616850
0.82500000, 0.06500000, -0.09664200
0.83500000, 0.06500000, -0.09673410
0.84500000, 0.06500000, -0.23956665
0.85500000, 0.06500000, -0.09577414
0.86500000, 0.06500000, -0.09472587
0.87500000, 0.06500000, -0.09330377
0.88500000, 0.06500000, -0.09151343
0.89500000, 0.06500000, 0.02407988
0.90500000, 0.06500000, -0.08685777
0.91500000, 0.06500000, -0.08401082
0.92500000, 0.06500000, -0.08083231
0.93500000, 0.06500000, -0.07733479
0.94500000, 0.06500000, -0.07353207
0.95500000, 0.06500000, -0.06943916
0.96500000, 0.06500000, -0.06507220
0.97500000, 0.06500000, -0.06044842
0.98500000, 0.06500000, -0.05558609
0.99500000, 0.06500000, -0.05050438
0.00500000, 0.07500000, 0.13458514
0.01500000, 0.07500000, -0.11884129
0.02500000, 0.07500000, -0.04370589
0.03500000, 0.07500000, -0.03406839
0.04500000, 0.07500000, -0.02429645
0.05500000, 0.07500000, -0.01442861
0.06500000, 0.07500000, -0.00450384
0.07500000, 0.07500000, 0.00543871
0.08500000, 0.07500000, 0.01535980
0.09500000, 0.07500000, 0.02522027
0.10500000, 0.07500000, 0.03498120
0.11500000, 0.07500000, 0.04460408
0.12500000, 0.07500000, 0.05405093
0.13500000, 0.07500000, 0.06328446
0.14500000, 0.07500000, 0.07226824
0.15500000, 0.07500000, 0.08096681
0.16500000, 0.07500000, 0.08934584
0.17500000, 0.07500000, 0.09737227
0.18500000, 0.07500000, 0.10501441
0.19500000, 0.07500000, 0.11224210
0.20500000, 0.07500000, 0.11902683
0.21500000, 0.07500000, 0.12534181
0.22500000, 0.07500000, 0.13116213
0.23500000, 0.07500000, 0.13646481
0.24500000, 0.07500000, 0.14122892
0.25500000, 0.07500000, 0.14543567
0.26500000, 0.07500000, 0.14906845
0.27500000, 0.07500000, 0.15211293
0.28500000, 0.07500000, 0.15455708
0.29500000, 0.07500000, 0.15639127
0.30500000, 0.07500000, 0.15760826
0.31500000, 0.07500000, 0.15820323
0.32500000, 0.07500000, 0.15817385
0.33500000, 0.07500000, 0.15752023
0.34500000, 0.07500000, 0.15624495
0.35500000, 0.07500000, 0.15435305
0.36500000, 0.07500000, 0.15185198
0.37500000, 0.07500000, 0.14875162
0.38500000, 0.07500000, 0.14506421
0.39500000, 0.07500000, 0.14080429
0.40500000, 0.07500000, 0.13598868
0.41500000, 0.07500000, 0.13063639
0.42500000, 0.07500000, 0.12476854
0.43500000, 0.07500000, 0.11840828
0.44500000, 0.07500000, 0.11158072
0.45500000, 0.07500000, 0.10431280
0.46500000, 0.07500000, 0.09663321
0.47500000, 0.07500000, 0.08857225
0.48500000, 0.07500000, 0.08016173
0.49500000, 0.07500000, 0.07143486
0.50500000, 0.07500000, 0.06242606
0.51500000, 0.07500000, 0.05317089
0.52500000, 0.07500000, 0.04370589
0.53500000, 0.07500000, 0.03406839
0.54500000, 0.07500000, 0.02429645
0.55500000, 0.07500000, 0.01442861
0.56500000, 0.07500000, 0.00450384
0.57500000, 0.07500000, -0.00543871
0.58500000, 0.07500000, -0.01535980
0.59500000, 0.07500000, -0.02522027
0.60500000, 0.07500000, -0.03498120
0.61500000, 0.07500000, -0.04460408
0.62500000, 0.07500000, -0.05405093
0.63500000, 0.07500000, -0.06328446
0.64500000, 0.07500000, -0.07226824
0.65500000, 0.07500000, -0.08096681
0.66500000, 0.07500000, -0.08934584
0.67500000, 0.07500000, -0.09737227
0.68500000, 0.07500000, -0.10501441
0.69500000, 0.07500000, -0.11224210
0.70500000, 0.07500000, -0.11902683
0.71500000, 0.07500000, -0.12534181
0.72500000, 0.07500000, -0.13116213
0.73500000, 0.07500000, -0.13646481
0.74500000, 0.07500000, -0.14122892
0.75500000, 0.07500000, -0.14543567
0.76500000, 0.07500000, 0.06496478
0.77500000, 0.07500000, -0.37016156
0.78500000, 0.07500000, -0.15455708
0.79500000, 0.07500000, -0.15639127
0.80500000, 0.07500000, -0.15760826
0.81500000, 0.07500000, -0.15820323
0.82500000, 0.07500000, -0.15817385
0.83500000, 0.07500000, -0.15752023
0.84500000, 0.07500000, -0.15624495
0.85500000, 0.07500000, -0.15435305
0.86500000, 0.07500000, -0.15185198
0.87500000, 0.07500000, -0.14875162
0.88500000, 0.07500000, -0.14506421
0.89500000, 0.07500000, -0.14080429
0.90500000, 0.07500000, -0.13598868
0.91500000, 0.07500000, -0.13063639
0.92500000, 0.07500000, -0.12476854
0.93500000, 0.07500000, -0.11840828
0.94500000, 0.07500000, -0.11158072
0.95500000, 0.07500000, -0.10431280
0.96500000, 0.07500000, -0.09663321
0.97500000, 0.07500000, -0.08857225
0.98500000, 0.07500000, -0.01449133
0.99500000, 0.07500000, -0.26844605
0.00500000, 0.08500000, -0.27639359
0.01500000, 0.08500000, -0.06636809
0.02500000, 0.08500000, -0.05309186
0.03500000, 0.08500000, -0.03960610
0.04500000, 0.08500000, -0.02596404
0.05500000, 0.08500000, -0.01221951
0.06500000, 0.08500000, 0.00157325
0.07500000, 0.08500000, 0.01535980
0.08500000, 0.08500000, 0.02908573
0.09500000, 0.08500000, 0.04269687
0.10500000, 0.08500000, 0.05613951
0.11500000, 0.08500000, 0.06936059
0.12500000, 0.08500000, 0.08230793
0.13500000, 0.08500000, 0.09493045
0.14500000, 0.08500000, 0.10717831
0.15500000, 0.08500000, 0.11900319
0.16500000, 0.08500000, 0.13035843
0.17500000, 0.08500000, 0.14119919
0.18500000, 0.08500000, 0.15148271
0.19500000, 0.08500000, 0.16116839
0.20500000, 0.08500000, 0.17021802
0.21500000, 0.08500000, 0.17859587
0.22500000, 0.08500000, 0.18626889
0.23500000, 0.08500000, 0.19320679
0.24500000, 0.08500000, 0.19938219
0.25500000, 0.08500000, 0.20477072
0.26500000, 0.08500000, 0.20935111
0.27500000, 0.08500000, 0.21310529
0.28500000, 0.08500000, 0.21601845
0.29500000, 0.08500000, 0.21807907
0.30500000, 0.08500000, 0.21927904
0.31500000, 0.08500000, 0.21961361
0.32500000, 0.08500000, 0.21908147
0.33500000, 0.08500000, 0.21768471
0.34500000, 0.08500000, 0.21542885
0.35500000, 0.08500000, 0.21232279
0.36500000, 0.08500000, 0.20837879
0.37500000, 0.08500000, 0.20361242
0.38500000, 0.08500000, 0.19804248
0.39500000, 0.08500000, 0.19169095
0.40500000, 0.08500000, 0.18458291
0.41500000, 0.08500000, 0.17674641