TITLE = "Linear advection equation"
VARIABLES = "x", "y", "sol"
ZONE STRANDID=1, SOLUTIONTIME=5.95, I=100, J=100, DATAPACKING=POINT
0.00500000, 0.00500000, 637109434877530785835377460233764070115551061583595716117911128685424116131711453640892609625342663764406641895757195082431063629012139355697860238705356649009398748302939114937156545260002312359788096845351785836279304756156782757941165805723356457627604975722510225204146339840.00000000
0.01500000, 0.00500000, -392188553789939511310042083038467817073737233509803016706424251904220413071188312088754481017184079480439388641232721936979860319096833529807226717716319733522580972145440169139412854357595896770907329899449240130932332539829058091516243345925316838558619935009952359809911095296.00000000
0.02500000, 0.00500000, 227508525113424576245970163857269076028675716608301511404260985241060286766332083564379978650625067994823734365608481518556865069621432925406854839038116274110815261480981814642162127777597078106348932242443541341523480252833650672417226202617039484780470790942458606856517451776.00000000
0.03500000, 0.00500000, -111966141440526995659712062165288699856534615255066466590914617952204983922232484735595988549605493279532327859660077201549637861050372233841329376353188769858727524091520209125285954601080009046894124747984680869707120405257091208193234282708933575710174774349660675161462931456.00000000
0.04500000, 0.00500000, 38865555607025778255663830067292538431462359305436738663862179014685290307780078155281580600683255740893582065554176610163030038909566346615119876503771991983413365757723685025969390203752826395878325181058570665639097573243411408963398462382463338661834461570056567688641118208.00000000
0.05500000, 0.00500000, -14053965985342535272610498799551661185928440426894602682025892342291735511559481850652003465046162977393509092384183484682002748409006442384809891895682340614431916342839109446656606377376696662608777021348620406773377956393137482050182161681108628553918568315092560520606121984.00000000
0.06500000, 0.00500000, 32236213869566925928043521337367731851050327561493957702197216187848949270693575860837510028491374230884174173213638456222264075880025357798733625685751647729635301106076457041231401919541675686646581207723838328651419381195125186143951039976116433066983352070089938293833596928.00000000
0.07500000, 0.00500000, -83701030418497371779616824594971496840393624389382982030045876650687810003769903296891144579214348304845968806164898238094315685914561517533655476262233632886549939577236858293852753133714538101530790423326312175049083783931927473382022214209989836888294386979518746040645713920.00000000
0.08500000, 0.00500000, 156145787099650596008505200264885746772733191380809831399219896439639252179697550300734990290067067624211973587435413925251488215486090185446762563222987298765046970243290474384597148467280559521219210262849760107572783810323276756844228759751010399203743056540374959691065720832.00000000
0.09500000, 0.00500000, -238971575819155032148335850772673441648879808797324770310289706002004691294132181244401965723172595465026689319362483728139785055184153061823164750392548561583440342372302717749982982703768459468215860667053339143449760410976408568868455038037079615920844086751558716871703265280.00000000
0.10500000, 0.00500000, 328672970461315087980145906045509841332388387658682141478560994683873516869700667462774737238476166600701339332403231843435123732449156498228900416846665067642246538450457141067965560265178166782362530421879264512045678546056280881727619656831835014752606823017854782506027450368.00000000
0.11500000, 0.00500000, -418447951908378900583287230706918728287271849973673955907416189306992486441866348667726275967290629587781520389521406984571880600223482007457680334137013893466523958214584763568771237757028482047315736530750233866706645324557023920362454873322157822497843028693941596866306113536.00000000
0.12500000, 0.00500000, 508656981825260565357660300767055642862966472507304517407104072704083559171318475364076724274676313896814893657606271020833689150078981267295506975172728378980993275268163062001082837245782676909138834901793001326998062356539130389649470202881951458083274714294552222485796880384.00000000
0.13500000, 0.00500000, -595576852336662378107673545034395697105684880255746193475223254283298392445423891787648555921327032543256090888871260795573642652670832643599904027878489506170042766614143391038189508113699037246478511661459994359238477369876286248550923783964791455635550341097909008881273536512.00000000
0.14500000, 0.00500000, 670499753185056003032595952020326992113045079796779524261394207820609965806745587672760042592868033632101931939704922570630933894249320622900669945054336566595114089050691641746065056220111319939442464082548347601990813767872456426632601448372972212004135403594371823151175696384.00000000
0.15500000, 0.00500000, -745111951031847421672045184299529549497080691853019680161849816578011336086711110214405442496171794299037336974468233789656999065384289363017989308908641634707190863059911538998395531275737913078620597993604412656548431185039017396798430161775975463699584458713365617912938758144.00000000
0.16500000, 0.00500000, 814071416238371711111719115099332448250225501403744582158447572358375779469410881747217399882396174669466545366480379512913436239397104744100084874087497992455779653232376841030348033971538006157601715659902467824582443195599033892124021181451166244355102805176670782026581803008.00000000
0.17500000, 0.00500000, -867336496391641422787910224062826449488913585690863845711980942796671148880796704491845391609102788990575639566532655450822791956358914635124264298414041343542847615442741926470411306145790286921588115119008842359699461511719803564745585172526238267567714573159858394646718709760.00000000
0.18500000, 0.00500000, 909761253263902084037446805867844868216208663904683632470871338656611665635208197689587142064518654865941955123134315243060374386078490963043040810940520437749174867485699427522155250430447863210613563925754675268290655752329424963856958638232790453551424353924410288461588725760.00000000
0.19500000, 0.00500000, -942082291144869616749872062957533341052650338346004157739765613395959155540006107979991929028248050653758233661803224717741627491509978776958018019814418250763976365478549437536663151290625716520791740304776661269684875218547338300195119700558155538788519497982994284253284401152.00000000
0.20500000, 0.00500000, 965110633245542017992367565131778482659626213380024812757183373247859609236522190063208939207690391343090556684525355804217154497603239267679480320341018744205268022554380572469796676856497149704662136520884443032185630198165286416171325936199053261648986682151975802441687891968.00000000
0.21500000, 0.00500000, -980581003602421639199122951338529337401257767200380696002737094585964327731724988270555023985236858616959020127434702539453507965196852142890769276067322488041226136951427731053570265708850617894631273148862737112687990881279820307917109390886390812319692640895805938045707878400.00000000
0.22500000, 0.00500000, 998484156976417551033005299796267982927071682126481146886158226571344487984590120501318901553226098934460881485493327480000386129732930710819330509326158545258334442767588221682796863363962675738112771949072570497806679756319263240561037398896931556916624802710293281063334576128.00000000
0.23500000, 0.00500000, -1029662168890857238413229285627399116471866775243098026385705626627679505987023848682589946795917059764060003509066733612333868758442061880405351457637282771028315248043667105031945088232071584613223261435887003024610463389755441310062195981691712727884955840339682714611250888704.00000000
0.24500000, 0.00500000, 1063215081685259607080356972890375660771581028675195612102948455762332251727524183130604609786539900152578103895051797801513274023963013496109540324851371686525101533652632764270395052009632039982191574247349856732718320484510980248568688158666103384830619253519332178028335726592.00000000
0.25500000, 0.00500000, -1077395845645208430608080971607913112715080562863823421419414415593934133603742288814210057367763128124599283452309311416467250426953909788198692793850764366533782571438394103815661466546905129396595491528995391031762042806346469872092047424929257765003399986156817759825991565312.00000000
0.26500000, 0.00500000, 1071103016726514989796420156890920634274057253268002702025702200363432276214101887981254766446197403632552385771939324135991651444170367725547036313773674180236140443587091803786201689102459896149449364621782908598931689006791953236110368390910740166722543521886201410791768326144.00000000
0.27500000, 0.00500000, -1061133480386459556980540042565787077683793608697056726453181013477008627509281959887456610513479663835769494711353583995667649119294026924371614184954536680637547457245085854044060278343410190375241077965137105194088500040444567279182827670476893396420510490249718887321163530240.00000000
0.28500000, 0.00500000, 1060514726809824043740347386878524756575109187854791267186584499438373522182129871753694969956279783653571458050306107138532554727852866791819814839720938883383793187608500300177283129275391950415415597529617540988504291255797390180577264029818977298613582105213549033234431475712.00000000
0.29500000, 0.00500000, -1072325190136003096370532976421905070611144283933254094180115654711025311736927857707448864200488758227508827977605936262829690507539416083160986168424276167902113031324272860618358567129644879606278825406851805653942870088738530412629253611029720437354265449242128337868712574976.00000000
0.30500000, 0.00500000, 1089785855231186636263477849958279360740228175312451521329241006395060222627245706590605408090890076612085512591364526943267824140802494840116122446396801390907302919751385202495597203816683779567153355149297414431557437938993492519381081878862149397537258938843277156300816908288.00000000
0.31500000, 0.00500000, -1103332567984096918160548264118742720124980537017351712095793264159848426285018442703766641923571753292380778286715538390662832366146083493656152396232804207172138649986912730496397610719564140580085705066442693379157604236091563883787535542468478381420112619623296618455984242688.00000000
0.32500000, 0.00500000, 1110767023937193521822724068351674984484344000529726640562419124505526468737541231451569480844423973128302842906893180037201749009406120867146224614802004392075039187610719754298059678890118255515707967803397438827046583458322451682978955728242984292186232143335334254855403339776.00000000
0.33500000, 0.00500000, -1110385379683836211675646707975448759439691659915519850110140891683770348426805549222625921058071372160442358146524874670175034010524160187758969823010261712128721989636234876094046545356611814955446675924060692719740602255009410752715790344395089859006671880062439148083767934976.00000000
0.34500000, 0.00500000, 1093090594675986562349532542599426155791531249109492476161959677682113353856125680272394013637086241916598910432025233184848610067933575606588574027294692665889716483599196563728620096602518911880978316492670560322758531258120867145967827535394342547703389595668183900987540373504.00000000
0.35500000, 0.00500000, -1047525738337407091102708689802728770146634306168020674547229250041463457486434054355008627679682458235203726519656805297930949431463262115518786213821078128407166938748285164825714711617423810604869433844987240493958975266547037175267805554960425732760677805536088230310377947136.00000000
0.36500000, 0.00500000, 967845910991233661898857246927645485332323868069454322212862259531238514602465224263978933007834161521725843769105457884693123777174750331294952817471120606271206917613630317725189443208817544907638452356131359320211801446856011334666368336995542137011425712948988419783755038720.00000000
0.37500000, 0.00500000, -853179297051571588543206935147666152637881373413906842988517981743856321568660282117366390295542314113538603091560702700977843662608695127768768393132385505478872997411492394085382521814484201271010811087622450910458918113420076214606300550386947187135257716708789864769504935936.00000000
0.38500000, 0.00500000, 702422432432417005901076851969295060190373280912593841575480936915965899039187607966617636882803428247525145301750324158240132687488005717505003936976160699875742001828004026544611918909249741153082638746782556335329992320529997867748193235264633920678826299491094529116406284288.00000000
0.39500000, 0.00500000, -514236970800867423025993705490519484268875204234911881568420639471994054614282617788622150390899004225396389532323048202604811572083050418944116369566341968631455232531911781400469761182422018956012923351098578394597928693409296603590412317596683488941152546943326734471093288960.00000000
0.40500000, 0.00500000, 287811891078294828988687728004421242193935795602520723192855720125133187065590451411296584159429432184926522609397651481246363663797671142354000603817071459325129986463582601047019060826074479745233889682099155482969402747636944670135959050698471084918285095231885244982924148736.00000000
0.41500000, 0.00500000, -20709094396323154460551587611227240708326478310400682282505297364165084540609237896014067103450810802983838233260268834768142677299882152774767097292232601337913684202662274958103671520558524815914609135123609442986842169518796827655788025178276956442303707292807800224101695488.00000000
0.42500000, 0.00500000, -291386336713462241745048867650668962735448752262477712901701151440577632729402073731809145591246338113298236976514319666552701515424837811764016509754145358901991359163658379910932821339667102400817829060342534765216204185140294616738013700052054790512505813867772252282463191040.00000000
0.43500000, 0.00500000, 651096535389011722426248264901793182598307215013126360775014119205179583265557242254227398628755480216817394745285768276524516929650749133755859790590245949513383053091358953147061431872913415739100437483478961506064663702747379856415684939219874082107728070201096189964663652352.00000000
0.44500000, 0.00500000, -1059154152346763319261429127742317932217949638350553305948075529732765015628881027941709375900610859201231440657744939329823850881668118820383649794899303045939848668732645329902273116783934188024000570914594569243487989472347522965330635914247816582857135010598309874856242446336.00000000
0.45500000, 0.00500000, 1518011102151598720290678458974448965498362626092283827520921620270169942191727465089018546799714970235485832359223794491901039654093968003962423901273609850280377670242735878949030204838192381582723503931532888285771548089534256941104180257095047786285279892578678223461611995136.00000000
0.46500000, 0.00500000, -2032393769247972207477197775759324923190667727888339969123731658172994060884835143572234601543201082998355151084384477907414288756203123330606651277409869705554411370123259202079316811145277340173332055839158505487675564051551863349979911486217443141580767361726548437113365331968.00000000
0.47500000, 0.00500000, 2599758046992898174097294896577544332527602044369258382752078106192557448649758421888609457185297116443198017943406869883302227426408217724419038133964985714600325531411018051114635285933840816948876837989320950582067225502574349907288463707667761464057264386635224161740952436736.00000000
0.48500000, 0.00500000, -3198666195092296904181052727240696559621338478059283332369146911947556511333662499445455587878170124548692107987253750115028969040093100214074791095652197036825058191377955111926585377867634824121479577603465207093302826346734744852448192172783960063876931532646501923505372659712.00000000
0.49500000, 0.00500000, 3794798987648631943912856059921477216339444648393870977031870069581800253940775376722807854702796021672094690200191173400733698467597040788115234075306829527114183947248776931646889586616071833408454932434411256124510133667262922029598092209086107029224446200145261146963160596480.00000000
0.50500000, 0.00500000, -4359456705555690041935381139817164814292495949042348042610796098160853712993136388990825877017766321355137849911600196405250222796518443459539868972498228840063298350302149418810009667419682177938993919691633967509766390664204245647565078551077712758164957087363951773488754196480.00000000
0.51500000, 0.00500000, 4880930523782440681761752087091037539718216353394473178365918040616056530393467882625388542083810609891090140421801282611311259893553566271568876089006725526204610176991151395595172328647108588368211448404201069169681536469644262125544810065889247330517575441323986175127285923840.00000000
0.52500000, 0.00500000, -5362249230974187800267602521967177403566615198818666016796265304427127499833013563404470468165629047525718290350149104316372182327468609507266974698929310839347308026228355858421540101695661215015050382515027453308180536944702685177960604181573718571779380819071494229633351548928.00000000
0.53500000, 0.00500000, 5809136634705718783043161617507415120695871663747472853043153062778396614055916051674674125355897765925351018192114680943878460732787338713041962695168238923572201311231172634955076028274827268633654166977706645757983674355347543794634258751665849762616527787515843505814327263232.00000000
0.54500000, 0.00500000, -6215098317313053647487492479011369413462686942780516578884704622560808341569661392398340259374094296580856291468938107275006121747008092453427092559701635297999474438021888958645103361575254552914122034717206534363994708591910964286417170685825352026947846440528414744776852635648.00000000
0.55500000, 0.00500000, 6555685241824822972462839134981088136339789584523795839778329059924621355516812544659247246440026427678090154544583761348557195685786758531487451978992829874327569900665033154016847421196341900243277000969229327548397528309839840872945008476171648469511152466996072918544117923840.00000000
0.56500000, 0.00500000, -6798869441323725260214724895222304606908918381421185213326660774492227949025131474402531512368811173055918169772606504230930070320919482562475927926428098434123240596610876555270354700925201466160532300147487231632277356405009267279187596192949963704134978530464945511732212662272.00000000
0.57500000, 0.00500000, 6927824376256650486715311490856509517663759583102527027836416977552507220499109909735458282133010989321494728105152233737257976044777959177512993346883647113071834055220989035975968378125305711497138621642111956838070627931270825946229407370428989460461243902921321781912378802176.00000000
0.58500000, 0.00500000, -6962578341612548949510912721477355043322441733364395880825828086703816029403533528306765083387883534050779932572095025408985628788177910912811193500823494075914188644259671537320964643217315412707670262331876079418628541199988974889871864827708421772043600060177500944789502164992.00000000
0.59500000, 0.00500000, 6947375188351603832390483520462017392137084937481572120931131802559085043202301364603869858772535937915450653461729024902730354550816665208897527007537058312239387662872910864638624822073335898991522717413121340820437272961584690321847180027745227150347101707273567381492850491392.00000000
0.60500000, 0.00500000, -6905022230149335464153386277900720830818623566148421312229590473200603628166227606572578555806445571357244544285785835516267819005719582554704683558528256791337071870517012169136395372572012892327247200079911471418747135942958978998649470021415178918107490690517356682861711720448.00000000
0.61500000, 0.00500000, 6818007072890485572584373498120676610400029089678767289394049805121773901774154530754652237938209105579233398865519589808304738211791902140184621809543964803057278833999095032987991566932863661297826270035871259301723230605988401880708167574887115244547760184164313759816662122496.00000000
0.62500000, 0.00500000, -6652597816992036566151455997771813956374665610591522070925375777120785086585854931461673438355841075345496362471263252033033595337680425639598895139240651657740379632703745858081011738520310397241553029308976450452327501719550009727544912459577373373381852108074007275079034994688.00000000
0.63500000, 0.00500000, 6374033578963401351642263093198883427768863215171822761352909687038821485998547759134514132134595720521017857455502118416347278431396215131573953797791277034661283267193506618004240395520947791981603786325476603710559658254888741427646871987783079046531479505837842198103765024768.00000000
0.64500000, 0.00500000, -5950564184055029499166381183574432387316501201731051853958364123849939613283202264975427635965216389225187085248821181779344674121093363410212742550311858821791214673773964172535708918710429379444039700965257495831081077830716711686409475749425860758711002577511234123567841935360.00000000
0.65500000, 0.00500000, 5371252276093913664079192582456767984112956068291353901455644859464001691153084900558197045210490586159716310601911703442497019046400711965502172217613160785650263428450120054003172641773512557141869629902388857195102392778560181353765847059076897825955536990088278202944843677696.00000000
0.66500000, 0.00500000, -4651237688563460922892051831792300934188114136714829117134731197360398439428973046516066638739008068551410640079624318857649416984259760421781641551855079129436980365770971484467724908585799264721868247981470533617195653597717150516292584555983627952096983966271403139595595939840.00000000
0.67500000, 0.00500000, 3826242182797851547060614562274426722682820162213840793003343042784349681704791214303511719842262920533393631931698997174452808436345666564484458503686598239291775336760970108446828973785218656898502763265607571844740912932177566007627319883034483588120995154018441441445089902592.00000000
0.68500000, 0.00500000, -2957014497151182592814306260795260647869273471549285421430095717607042196824135707514678439088448311622399498222330726427188307964029532495426073543684798749156454041358993364118337707810652464185065263668437069678682545303309711549385032588338506831779561426763169429150224089088.00000000
0.69500000, 0.00500000, 2099757466156778090687410828206667918603730436343870008180765324434716255157678600390369894421036962502981483855947378020619673652469244222325954617715418330567226474402118890043543918538234447593564222237871447649135658097381346778792059328390444920205540313621924301917416062976.00000000
0.70500000, 0.00500000, -1258246778599425168275296077922495657379360100640136444217596765464649795933319400908259190974595657850483142813878723301331195013602273899043427178819179715250161580058296076888437260195557631420669070340202978934074050870612884982771527545082733854212901002709044338263364468736.00000000
0.71500000, 0.00500000, 397146221204566327767314675623945137561852118926772006896311849428849058339078427727192739616301232960723162502757382275104903836667922054047767231408508109684221743984669052741118639743467602273069192315194276274738287529211957379376814105926898440675652556075318611800905220096.00000000
0.72500000, 0.00500000, 507974157331939834230727841314414736585763754509501821106305548278861889137252888225835076970332671973085478744670816305163461124816404474692676961760403342069901096220826779547839006776656775496138796904083774800569934875057978540363849113646738807551837838942582604878330200064.00000000
0.73500000, 0.00500000, -1444833890188674897382390043440931281714187318586692127244513351583555196220766133022539351790430550395361005154058319347989622639581415479624287113514780109708553057837986785965402707038395344179252471450899048379869358593695535657318120029043636195856643392746762078670777483264.00000000
0.74500000, 0.00500000, 1672442844096726469124060892227900696723627638502209235332039694285313568723809679004250807996642583331543398142357968078142294411696965724824331382290233894960235663355922029301054571679554594185194184769475653052010612376862102722395716871906815027438506334327211873471809191936.00000000
0.75500000, 0.00500000, -3265565993503310985017826717633443765410415993909541011740635203105166477023577562493446418589867866392558646571692490166175235804540641227134976367154586879734953020399822458800976731270434938906147664457675858911134120677420354338083986729791312342750552996746762603396755095552.00000000
0.76500000, 0.00500000, 4085938687690629417826142777716238083832401371973213271164003516641443082739779497598918056980056516553337984702084933690353305542228128001835974649827427279572121083473702892457878770371447628874353232038052173683298773940745123129529080518700638330252030180674110939009621426176.00000000
0.77500000, 0.00500000, -4814571512468018836892556746930063176742796213676492061125437877097901228676843781732981127221822603066809024461203228647391402200603136250537049953082929476416074208724592668468671733017624505613708299829819887375229499163454857108736633632301472201321982636934799340432766533632.00000000
0.78500000, 0.00500000, 5427235855984861157549001547314763247809737340392962012112548868327194422631254165802687075201549971394467809517025244190606847265862809721099898362675441938608978655935008781609565101273339615436385247398997473806677680943449105697367929039152243186360767535892301532492776603648.00000000
0.79500000, 0.00500000, -5908486836474411993140463238684858991442596798434848730212274147280613979138705938599597807566576060109649229163295272992733374563993303790692992854160997706792292968401518075864474623782819465740451585625964112699440469826692484980027223983981233859513005966625746165005356630016.00000000
0.80500000, 0.00500000, 6261229001507809085807540470544519903782277453423131612320768652266490560874964728849535072468687569967645252613418862838969452003417937263794119065005285021303170004426344089018912198751414642360331504382990307802480763910409725848165949269407350657988780781556151597674354704384.00000000
0.81500000, 0.00500000, -5768782537807813143581782088633336421958952547530473407853006058600317344899802472482579488218737351645442833379067580071028465549238490068227444003441677311101043371169852348204100956639659552184631006904443517581085365104044377078805379283394401302674434029192643979016795062272.00000000
0.82500000, 0.00500000, 3673208086236268449063735612460786766694663853259792635892132045760052530381538464307527892459486448393635361443889970506475417327766135401426425658309139935000416795252540663504818639654635340392330551423163509478468060695521627960908217032308328548814454003040316758330724843520.00000000
0.83500000, 0.00500000, -6815289688182898533358456680783032343111854547409137186282468305640712388789224833689577348985229671616807714424296675027146299083797881825663768137359320375285505125020338042055131751886114052290734653260186172118072111869993387249382048735272878891607730903979940063623956660224.00000000
0.84500000, 0.00500000, 6752673474697800441437637798833734188071824692872601908028239829503344498631954246474285188110117268560879967479063489244005688256681470142825939431327091147698048915308679899745022672924703918821226478595281708137701812559209934968960289490633964434301472928473699032876535775232.00000000
0.85500000, 0.00500000, -6444975061462645933768920556676422895814397436303797067059446064525040082101456767309943945334832236561176434226897551053599072651333231035412389329421770790720017800872818272508017972961438853218295043910579604253644519952536361571666589833150012805861396167059011918859012669440.00000000
0.86500000, 0.00500000, 6140845093112680684687702457406652778138916678444339056904437055341397514188926603207142686281092322806509570875498385863171302973645716928073487714695664986816917466565689973492373629180209257871496305521489899672068242270710047599987351549963297190558300419400407832017848238080.00000000
0.87500000, 0.00500000, -5960237246153859294339031019738290475777303943739783775931701444650802486780739620197337100731174501552525387958065280027155634977028838632646559469284023048730344191146735113972355153853300873055044400419552285519256094719697694897613302222329923971233014059912741681979407204352.00000000
0.88500000, 0.00500000, 3855617906462998464198777203156964371367049273902608143529978244002073093455889945313781305462892271638538731810131266258450866239038368392835216154162291699180958842680533371239358824949435658970788408775614219310324918079799381464470627475993191826530987019352439683901420470272.00000000
0.89500000, 0.00500000, -5408310427826909353525582124882660042944005487904781679718068116380605624775759393625497594194064885209574862905703229867966240015502629500701853027466957270781025308765304588581617402289752118709141439376142337645332430351707013088342421919772873407353340229487964443637710848000.00000000
0.90500000, 0.00500000, 5016676948472803328641035179677254537248474164781333418003770914826212917754801265037520271661321577345114483553329199292873493774390183183699076942360513313068720115517629471886895190807907800705066902269763863905101698556251152557597072080854729036054131333432843615919860088832.00000000
0.91500000, 0.00500000, -4435872468796059019836507915819263306963277950286121076965363594944573247262181196996061244501591311700815302983584811137832282703175520354591315448778491233016186708079058620600402719844521060484939201514648145904436371269909137652319584681053701495349357383343331793804680232960.00000000
0.92500000, 0.00500000, 3419088540308906802472102585641662695691527940262901030209601509673248607592070226158257125315458393285964324340017961792052479243309346758613575909564289705702155221801721193003386029624604439406883556728493794263695590765312499074728735232837704885334452395345988714866289934336.00000000
0.93500000, 0.00500000, -3101280595719645174130147905918203715355020391635659431900301334172299604910203021783781279923466890705836632425516621793041365989441992122636461824034828998095134200464548791247042956425242718045779318130686956882964725891035807240140087044468386231549754406142975842221792690176.00000000
0.94500000, 0.00500000, 3210129372762066765791689038319068883114290106369020810596173042060864349492277798924996281501699195014694444215545565690556103562970100086154728967985889716607278241603114314527620752092026824262648372902697271146111763213465655047709551773089482943921903428164690762687984959488.00000000