TITLE = "Linear advection equation"
VARIABLES = "x", "y", "sol"
ZONE STRANDID=1, SOLUTIONTIME=1.05, I=100, J=100, DATAPACKING=POINT
0.00500000, 0.00500000, 112039115402708655055119449755005827344760832.00000000
0.01500000, 0.00500000, -111163436288604392969738917463297525026914304.00000000
0.02500000, 0.00500000, 117310181823239289785906858652544786906480640.00000000
0.03500000, 0.00500000, -131891294511504710398751903196747111992393728.00000000
0.04500000, 0.00500000, 156079729506699765966409556106938020807049216.00000000
0.05500000, 0.00500000, -194182095572893997046034209320284151143727104.00000000
0.06500000, 0.00500000, 257536521963295387063749597352654555729362944.00000000
0.07500000, 0.00500000, -329977343279817719090492597942095356928983040.00000000
0.08500000, 0.00500000, 389863243557827451441026982002500209869848576.00000000
0.09500000, 0.00500000, -431601815693101692616757922003307880911994880.00000000
0.10500000, 0.00500000, 453413349761607113704548033245365305283182592.00000000
0.11500000, 0.00500000, -452308684725503593038892091555118126660059136.00000000
0.12500000, 0.00500000, 440058414081985826027363182784019709187588096.00000000
0.13500000, 0.00500000, -421996495016797565546635947526518210761326592.00000000
0.14500000, 0.00500000, 377596978590913609850659748739212903389855744.00000000
0.15500000, 0.00500000, -309661067650349071517079345840217769044344832.00000000
0.16500000, 0.00500000, 241444895428307260015558514691265863134216192.00000000
0.17500000, 0.00500000, -193171181421038328918860240096438899760431104.00000000
0.18500000, 0.00500000, 160940046465420117875698270580701148303327232.00000000
0.19500000, 0.00500000, -139281332526865362738550431748436415869878272.00000000
0.20500000, 0.00500000, 123088460664609771520067988999157881715556352.00000000
0.21500000, 0.00500000, -112578009138901493445860779513699352384110592.00000000
0.22500000, 0.00500000, 109514315546943617585587229507983030580412416.00000000
0.23500000, 0.00500000, -105732627385420370630006908792513458063015936.00000000
0.24500000, 0.00500000, 96686646732567432494869631191685978575077376.00000000
0.25500000, 0.00500000, -79256236795681846254184547639651792842653696.00000000
0.26500000, 0.00500000, 51827646518440084057301164766332816996696064.00000000
0.27500000, 0.00500000, -16000870229700959351002457170383537063329792.00000000
0.28500000, 0.00500000, -24152532231205978887134990972662937242566656.00000000
0.29500000, 0.00500000, 62301158734989938186551646139872100315299840.00000000
0.30500000, 0.00500000, -92051884582041145671898933108169745035689984.00000000
0.31500000, 0.00500000, 109060001016869161841727716680430355113574400.00000000
0.32500000, 0.00500000, -112263450030695425294230583572455592111898624.00000000
0.33500000, 0.00500000, 105647633472137450408759116186721591987535872.00000000
0.34500000, 0.00500000, -90651282829197875281992518391378811878899712.00000000
0.35500000, 0.00500000, 67988323505312202029043749161599349494382592.00000000
0.36500000, 0.00500000, -39132417694116419274254005657454987039473664.00000000
0.37500000, 0.00500000, -3482881521210981248762750432678198451896320.00000000
0.38500000, 0.00500000, 65776950906045207457424086269065372184346624.00000000
0.39500000, 0.00500000, -150041762367867112088562857611693572948492288.00000000
0.40500000, 0.00500000, 261003461409219336677912831869964250987364352.00000000
0.41500000, 0.00500000, -400783843557262372072498212334813696233570304.00000000
0.42500000, 0.00500000, 567250500515752843982434138099752242350391296.00000000
0.43500000, 0.00500000, -753576961440231462903349081042357217424048128.00000000
0.44500000, 0.00500000, 947826928069738491362370795793818010282622976.00000000
0.45500000, 0.00500000, -1133647018294459814543754775765232088101421056.00000000
0.46500000, 0.00500000, 1293537523745566002550444236095692688947412992.00000000
0.47500000, 0.00500000, -1410732623501683019678442166190309548687884288.00000000
0.48500000, 0.00500000, 1467394538342744319202331520515574269451698176.00000000
0.49500000, 0.00500000, -1445972125856052011969738500151777443662790656.00000000
0.50500000, 0.00500000, 1337126525184784005242343379471152497165336576.00000000
0.51500000, 0.00500000, -1146625410823524392836944939187248333754204160.00000000
0.52500000, 0.00500000, 895790709248471919238972051891274433825865728.00000000
0.53500000, 0.00500000, -619031436243878278730424746182422563821453312.00000000
0.54500000, 0.00500000, 360912400690737312210774287158120600444076032.00000000
0.55500000, 0.00500000, -171874729597332041802782692636232476140765184.00000000
0.56500000, 0.00500000, 106508819364849537118210880105709860477206528.00000000
0.57500000, 0.00500000, -230537289597663616200239829239008257015545856.00000000
0.58500000, 0.00500000, 640517818550823608787788143101357618393776128.00000000
0.59500000, 0.00500000, -1492670070364134147153319504867500973784825856.00000000
0.60500000, 0.00500000, 3027973966780469374207529079924456246659252224.00000000
0.61500000, 0.00500000, -5561551268735559297626575178451601800875212800.00000000
0.62500000, 0.00500000, 9430939238446987168393798000658350724245094400.00000000
0.63500000, 0.00500000, -14957169006067777023530670355798042134381068288.00000000
0.64500000, 0.00500000, 22465392573346758802911387899658043000587550720.00000000
0.65500000, 0.00500000, -32378994291472162654867126872597223297677000704.00000000
0.66500000, 0.00500000, 45121321705685794160711978520646212944641654784.00000000
0.67500000, 0.00500000, -60494700104069126244960255043653940123017412608.00000000
0.68500000, 0.00500000, 77070877862184155442475447044718225358304837632.00000000
0.69500000, 0.00500000, -92438688475636549094934827804479771169794293760.00000000
0.70500000, 0.00500000, 104047386964975554414751989238720970314240491520.00000000
0.71500000, 0.00500000, -109811165855058561914672074009043107141816156160.00000000
0.72500000, 0.00500000, 108568970343048773411822677397917472844823920640.00000000
0.73500000, 0.00500000, -100730800213581166104597734011794241180588310528.00000000
0.74500000, 0.00500000, 88145934126727981226232210267379912345032589312.00000000
0.75500000, 0.00500000, -72800596364954403162279798263463106974876434432.00000000
0.76500000, 0.00500000, 56660277887201837805638600513783837242813317120.00000000
0.77500000, 0.00500000, -41182425068209227435908805416760560663941611520.00000000
0.78500000, 0.00500000, 27568799850027013028502075588334962012485320704.00000000
0.79500000, 0.00500000, -17054001096664741457979244904591689042494488576.00000000
0.80500000, 0.00500000, 10465730353375840116766944597628380158843944960.00000000
0.81500000, 0.00500000, -6283945613825489088953287385368910281658335232.00000000
0.82500000, 0.00500000, 3387565273217095329392973549183965399772823552.00000000
0.83500000, 0.00500000, -1714912344547680590925794205544598387290013696.00000000
0.84500000, 0.00500000, 812458883545472437025913721306447951674998784.00000000
0.85500000, 0.00500000, -341138192004199112947876467665663306133143552.00000000
0.86500000, 0.00500000, 106391849529978693936273142699144807572307968.00000000
0.87500000, 0.00500000, 11538694383201883365958387802546515767984128.00000000
0.88500000, 0.00500000, -33610877407638611907970659620382951558086656.00000000
0.89500000, 0.00500000, 78036783077777176378080287962780846948089856.00000000
0.90500000, 0.00500000, -64153937363677453351529311759956663387291648.00000000
0.91500000, 0.00500000, 28830913836107808741531979235182075734654976.00000000
0.92500000, 0.00500000, 975177799697266416161123030217056122306560.00000000
0.93500000, 0.00500000, -37659762114380615421960255343540910470201344.00000000
0.94500000, 0.00500000, 70970744920045270888161875655775541618802688.00000000
0.95500000, 0.00500000, -60690598960941639596936433928970213437472768.00000000
0.96500000, 0.00500000, 108950826445249760819666236631096272955113472.00000000
0.97500000, 0.00500000, -114461727336724860564316383510180313136365568.00000000
0.98500000, 0.00500000, 116210205980912757609517503612952879529197568.00000000
0.99500000, 0.00500000, -114896295884595063322887684870184400391766016.00000000
0.00500000, 0.01500000, -223026673151110410030906016781855561913204736.00000000
0.01500000, 0.01500000, 229098737856016350663103911309788765210279936.00000000
0.02500000, 0.01500000, -252309538614201044857553416343226444482084864.00000000
0.03500000, 0.01500000, 289083728677278611252614125660432205992689664.00000000
0.04500000, 0.01500000, -349224397492019685227607516094589466832797696.00000000
0.05500000, 0.01500000, 450323360633150493175207453689059961894600704.00000000
0.06500000, 0.01500000, -582838022648405350182582555954153094255738880.00000000
0.07500000, 0.01500000, 709111536608917422591474609511354735569928192.00000000
0.08500000, 0.01500000, -816133111945045714329997213650109474885599232.00000000
0.09500000, 0.01500000, 894379826134334797466256451516653335404871680.00000000
0.10500000, 0.01500000, -922833870307513458571309830651689802397646848.00000000
0.11500000, 0.01500000, 898684119344248115944950250040754336843169792.00000000
0.12500000, 0.01500000, -850508328667460543964328827385415803709947904.00000000
0.13500000, 0.01500000, 769743363190906265785198109228730434096988160.00000000
0.14500000, 0.01500000, -650858520488517976840576369189827688018214912.00000000
0.15500000, 0.01500000, 516767674804933203925146571136154460684812288.00000000
0.16500000, 0.01500000, -411852117588340725833228213718188009602416640.00000000
0.17500000, 0.01500000, 348467581620015113004873246088349325360889856.00000000
0.18500000, 0.01500000, -314498158901888342536671865819944088349179904.00000000
0.19500000, 0.01500000, 304812765566635721248698297227340915457130496.00000000
0.20500000, 0.01500000, -312245588158368847774591956828234817189445632.00000000
0.21500000, 0.01500000, 328318494778536344717113981437573856306921472.00000000
0.22500000, 0.01500000, -337948040649956763798044752318027543661772800.00000000
0.23500000, 0.01500000, 327184013491026146715298250905377473491369984.00000000
0.24500000, 0.01500000, -289613738807328231982990196550120284723609600.00000000
0.25500000, 0.01500000, 226542537390739673312519652144098207770607616.00000000
0.26500000, 0.01500000, -143801779619346537796683825209045218754560000.00000000
0.27500000, 0.01500000, 51097530551688341553306410706596328596570112.00000000
0.28500000, 0.01500000, 38274595874373089688606771251213226746052608.00000000
0.29500000, 0.01500000, -111035962457188794071000123753506718900813824.00000000
0.30500000, 0.01500000, 158556082233097365886895677977474507644862464.00000000
0.31500000, 0.01500000, -177117488435371498237585484007438452489453568.00000000
0.32500000, 0.01500000, 169700601620467918430314245539018767683551232.00000000
0.33500000, 0.01500000, -145850250483422158651538235072953405566615552.00000000
0.34500000, 0.01500000, 106604441670387245589916014384656773065736192.00000000
0.35500000, 0.01500000, -53082228948927935283113965751669891587375104.00000000
0.36500000, 0.01500000, -18217535049955287072703821297446094775517184.00000000
0.37500000, 0.01500000, 117604888364863250254792107521558950872875008.00000000
0.38500000, 0.01500000, -251156516749730313409587787681457947560378368.00000000
0.39500000, 0.01500000, 428520863792342396834408952304005481039396864.00000000
0.40500000, 0.01500000, -657176360202714876785140644353944930960277504.00000000
0.41500000, 0.01500000, 938963650016879653192831239248623024331554816.00000000
0.42500000, 0.01500000, -1267789885765656581072683683393685368040587264.00000000
0.43500000, 0.01500000, 1628176242857501702454856122513312813936541696.00000000
0.44500000, 0.01500000, -1994264210856693191419552093410333364200669184.00000000
0.45500000, 0.01500000, 2331969361439808252715162985221708088787075072.00000000
0.46500000, 0.01500000, -2604686726323237217698519868002697450864246784.00000000
0.47500000, 0.01500000, 2777116568101739626005437398889642004481835008.00000000
0.48500000, 0.01500000, -2817042939333905137630633476609578595147317248.00000000
0.49500000, 0.01500000, 2701726620293076916925043226000636479656689664.00000000
0.50500000, 0.01500000, -2427775468297715565733628408229523989995716608.00000000
0.51500000, 0.01500000, 2017274981205312949805647898828319171599663104.00000000
0.52500000, 0.01500000, -1518619123764708552420891607617284823920410624.00000000
0.53500000, 0.01500000, 1003393261966347056626990685505719956460797952.00000000
0.54500000, 0.01500000, -557833107485737676144747316925793022534221824.00000000
0.55500000, 0.01500000, 271146736813383503160643138830614795118444544.00000000
0.56500000, 0.01500000, -228617052362016408025142365566403838893621248.00000000
0.57500000, 0.01500000, 516891909425101657681011085285752158176673792.00000000
0.58500000, 0.01500000, -1244936308890198461222468428637860746886119424.00000000
0.59500000, 0.01500000, 2572933284461102010876458965231098301310304256.00000000
0.60500000, 0.01500000, -4737842444524719966416987289898198968200855552.00000000
0.61500000, 0.01500000, 8047097312375712793965845025782584832505675776.00000000
0.62500000, 0.01500000, -12825966987852138368884650000129373197253476352.00000000
0.63500000, 0.01500000, 19371230439521899475440011497689648737827160064.00000000
0.64500000, 0.01500000, -27984486454651340752065085639612063711389286400.00000000
0.65500000, 0.01500000, 39001557087287776612874396143396362357575778304.00000000
0.66500000, 0.01500000, -52493518801671461507181766210676370981626314752.00000000
0.67500000, 0.01500000, 67679662294409770055288016909831558854158057472.00000000
0.68500000, 0.01500000, -82750614909184256253630016682061229374411112448.00000000
0.69500000, 0.01500000, 95418772521777086690322180374111191135294586880.00000000
0.70500000, 0.01500000, -103551050733786407281831726836596548846867185664.00000000
0.71500000, 0.01500000, 105483672838175352376696562477379339267881304064.00000000
0.72500000, 0.01500000, -100676211445886664577872136203141640422260998144.00000000
0.73500000, 0.01500000, 90359758771377190478680967157625990126472527872.00000000
0.74500000, 0.01500000, -76679644831186351233275255375764740746294329344.00000000
0.75500000, 0.01500000, 61407051446949457705346421519357061847467425792.00000000
0.76500000, 0.01500000, -46108530587343621002500151811905393102789017600.00000000
0.77500000, 0.01500000, 32455603202937654186820259274443478071527866368.00000000
0.78500000, 0.01500000, -20600419629956568915459291792286354193504010240.00000000
0.79500000, 0.01500000, 12631788070754997945935858251042690549222998016.00000000
0.80500000, 0.01500000, -8134605899189293787993304760395262914172289024.00000000
0.81500000, 0.01500000, 4609395468400603761283039266096586924364922880.00000000
0.82500000, 0.01500000, -2464274192373931322802602476176511337387524096.00000000
0.83500000, 0.01500000, 1103252758597275131788849746078114047043043328.00000000
0.84500000, 0.01500000, -422739213229757951771938179157096027786313728.00000000
0.85500000, 0.01500000, 191347618138357410998847266456478246875693056.00000000
0.86500000, 0.01500000, 1133594164987931586927629957265014881517568.00000000
0.87500000, 0.01500000, -102026900727398760139690783142591833219006464.00000000
0.88500000, 0.01500000, 138496551544784040825028278385679953324670976.00000000
0.89500000, 0.01500000, -124406022066711875471816752040681529675874304.00000000
0.90500000, 0.01500000, 77822237886941342914472443682657129528819712.00000000
0.91500000, 0.01500000, -13885793832425857538244357190400376108482560.00000000
0.92500000, 0.01500000, -53572223480332754978764045999914805641609216.00000000
0.93500000, 0.01500000, 118866334307819583988579967520829611758845952.00000000
0.94500000, 0.01500000, -174778410438315486951449050320515901148889088.00000000
0.95500000, 0.01500000, 207351187936679489269211323447804853305212928.00000000
0.96500000, 0.01500000, -220017469987032098182182360948549544832925696.00000000
0.97500000, 0.01500000, 228484232804637077875894308244787069009788928.00000000
0.98500000, 0.01500000, -232288311113439031732441534509386136905842688.00000000
0.99500000, 0.01500000, 227856811152882385889996887342082477260800000.00000000
0.00500000, 0.02500000, 409410354023367850258773467245635562406674432.00000000
0.01500000, 0.02500000, -438922214646977763342901614602613861224808448.00000000
0.02500000, 0.02500000, 504123374134550812138764334616201968931045376.00000000
0.03500000, 0.02500000, -599300276184653160086165315675414111040045056.00000000
0.04500000, 0.02500000, 746500756830036177279912154668029525197062144.00000000
0.05500000, 0.02500000, -955890655166695553920761926620627078813319168.00000000
0.06500000, 0.02500000, 1187955629725374756054577205618404713981542400.00000000
0.07500000, 0.02500000, -1395557704237888138505402573836038143549112320.00000000
0.08500000, 0.02500000, 1552484477812208671546524547051085286646743040.00000000
0.09500000, 0.02500000, -1645872509001212634955094550655060687309504512.00000000
0.10500000, 0.02500000, 1646649833075835400299103608134243169593196544.00000000
0.11500000, 0.02500000, -1559697204819127150010429427524917114999668736.00000000
0.12500000, 0.02500000, 1404910079401034947866306463698911922617319424.00000000
0.13500000, 0.02500000, -1196919549156030427833704751507008624487563264.00000000
0.14500000, 0.02500000, 960930102168179259999370758373720058891337728.00000000
0.15500000, 0.02500000, -750770001359925539155064283998791217727930368.00000000
0.16500000, 0.02500000, 606801342592497092053727002773292925233135616.00000000
0.17500000, 0.02500000, -534429531912186742587709555849600981750775808.00000000
0.18500000, 0.02500000, 524456510052493800986834268147004383116132352.00000000
0.19500000, 0.02500000, -562448959827022375936707110164705657489457152.00000000
0.20500000, 0.02500000, 622381772186226900005611055817010327502979072.00000000
0.21500000, 0.02500000, -674642858367827961843282437820240644454481920.00000000
0.22500000, 0.02500000, 689413092198246683068649497089453944190533632.00000000
0.23500000, 0.02500000, -647516320699525522092691405463834916240228352.00000000
0.24500000, 0.02500000, 547452947301343635781973689744896682063036416.00000000
0.25500000, 0.02500000, -401033682414542645916326844573371960110612480.00000000
0.26500000, 0.02500000, 228098356150077570387169708147323687103627264.00000000
0.27500000, 0.02500000, -54338015816521169719900866638895938088730624.00000000
0.28500000, 0.02500000, -94050280520166998201994007755947309606633472.00000000
0.29500000, 0.02500000, 198252886358290910179999188529383549421223936.00000000
0.30500000, 0.02500000, -250719865654903873502292089429606441347448832.00000000
0.31500000, 0.02500000, 252820441361526581875291379775398353773264896.00000000
0.32500000, 0.02500000, -215276864215263680200261706524890721838694400.00000000
0.33500000, 0.02500000, 150819421446619864499344366151784139761647616.00000000
0.34500000, 0.02500000, -60949322323258479243201021586678578522619904.00000000
0.35500000, 0.02500000, -54606970639751831257049293558133501210918912.00000000
0.36500000, 0.02500000, 205228257003623877010519186001768165977096192.00000000
0.37500000, 0.02500000, -403855421715593269413346984810293121087700992.00000000
0.38500000, 0.02500000, 667903894198735253588987757964674358770139136.00000000
0.39500000, 0.02500000, -1014332378255084075682862624796613193056124928.00000000
0.40500000, 0.02500000, 1454226645923228054388960783588189793551384576.00000000
0.41500000, 0.02500000, -1987315134223576961597806109027816636772515840.00000000
0.42500000, 0.02500000, 2597555483734536284166210775064304206785544192.00000000
0.43500000, 0.02500000, -3249981819392467104883054751018586727210024960.00000000
0.44500000, 0.02500000, 3890568428988058354129587322250091549920591872.00000000
0.45500000, 0.02500000, -4452598853828539124449526713110073134962180096.00000000
0.46500000, 0.02500000, 4867551832431724552985797774925960684146524160.00000000
0.47500000, 0.02500000, -5073928179634041406183812721237534614327656448.00000000
0.48500000, 0.02500000, 5024440897630513513697518250231012957387489280.00000000
0.49500000, 0.02500000, -4695886792893373365857880417973624311222632448.00000000
0.50500000, 0.02500000, 4100401063199279672897664865212235130714718208.00000000
0.51500000, 0.02500000, -3294714333606592199943926606933320591594225664.00000000
0.52500000, 0.02500000, 2383020468321394180338022650045659374946353152.00000000
0.53500000, 0.02500000, -1506945725804406804115207577213806990667546624.00000000
0.54500000, 0.02500000, 822357840136600772549274961250610811114618880.00000000
0.55500000, 0.02500000, -474014236956440860381329326195572279609393152.00000000
0.56500000, 0.02500000, 580519186925503877545364801082685990633472000.00000000
0.57500000, 0.02500000, -1237249729327344728252430065347493281184874496.00000000
0.58500000, 0.02500000, 2537290525682677341026042652959584241204592640.00000000
0.59500000, 0.02500000, -4602356794960224091212764828659022953313206272.00000000
0.60500000, 0.02500000, 7615273440299393044779479590205151129903300608.00000000
0.61500000, 0.02500000, -11822162638820034428405726430307477668231118848.00000000
0.62500000, 0.02500000, 17487259463037899202737976810183536542358700032.00000000
0.63500000, 0.02500000, -24856198944130114542416957651708549442610135040.00000000
0.64500000, 0.02500000, 34157489729498702342906593666279454128482549760.00000000
0.65500000, 0.02500000, -45496356463044947218479372921884663150404435968.00000000
0.66500000, 0.02500000, 58508832051898641618801314614115493862715686912.00000000
0.67500000, 0.02500000, -72052507521042910889762188474954707965860380672.00000000
0.68500000, 0.02500000, 84353600360494278127964424914557951181779369984.00000000
0.69500000, 0.02500000, -93503784758232438604310579933596964490615717888.00000000
0.70500000, 0.02500000, 97812775194985044875338085979475223199436767232.00000000
0.71500000, 0.02500000, -96165230713698827224971950532630921979472379904.00000000
0.72500000, 0.02500000, 88794944286360289399609251195027765461923135488.00000000
0.73500000, 0.02500000, -77357641464356588944624345885065524306107170816.00000000
0.74500000, 0.02500000, 63733707883618618614466299431248539621963857920.00000000
0.75500000, 0.02500000, -49476130138439986645450179318581956460886884352.00000000
0.76500000, 0.02500000, 36153588175162248920543565546611929916804956160.00000000
0.77500000, 0.02500000, -25026693621070940585299915109647514899467730944.00000000
0.78500000, 0.02500000, 16059557955825031159414372097764169926559399936.00000000
0.79500000, 0.02500000, -9326707659339337524480334011252098887973863424.00000000
0.80500000, 0.02500000, 5186758459931193001047567745620866075891597312.00000000
0.81500000, 0.02500000, -3636462840326015119670412595732266835773489152.00000000
0.82500000, 0.02500000, 1948736049534696268693169767032113761703952384.00000000
0.83500000, 0.02500000, -786509338450674680266772915999219173497503744.00000000
0.84500000, 0.02500000, 348466823617280713050742976140230351317368832.00000000
0.85500000, 0.02500000, -73322009070457641102043228984410469438586880.00000000
0.86500000, 0.02500000, -136463958696831581785361380535845280771211264.00000000
0.87500000, 0.02500000, 228961621973926399683281076463920142161543168.00000000
0.88500000, 0.02500000, -235854941577645140807994386627547225957335040.00000000
0.89500000, 0.02500000, 174103631895955898252982604272508227630923776.00000000
0.90500000, 0.02500000, -69264762410604247060789408703753470481530880.00000000
0.91500000, 0.02500000, -52902181594326576287385881148582392741494784.00000000
0.92500000, 0.02500000, 174404551420420012408334931320235790927134720.00000000
0.93500000, 0.02500000, -285135003895771616420660695716939389271539712.00000000
0.94500000, 0.02500000, 302303965421377706085075352579599759629615104.00000000
0.95500000, 0.02500000, -318709235113005833450807789312433354994352128.00000000
0.96500000, 0.02500000, 391052246452019588930353855440261573158895616.00000000
0.97500000, 0.02500000, -401109279730600829330415161986124736020611072.00000000
0.98500000, 0.02500000, 380750145860088728636745918265085876030668800.00000000
0.99500000, 0.02500000, -388543249109300016628171739011953502283890688.00000000
0.00500000, 0.03500000, -722593485176889085741044069031413448005648384.00000000
0.01500000, 0.03500000, 810131244478896987596651804391481389361397760.00000000
0.02500000, 0.03500000, -956632206944007434147466817331108696947687424.00000000
0.03500000, 0.03500000, 1162192599269267204209276517120590101134442496.00000000
0.04500000, 0.03500000, -1452631957653409999371494040290022555754954752.00000000
0.05500000, 0.03500000, 1811584267817289336089251985616378684896182272.00000000
0.06500000, 0.03500000, -2167328267948466297212225086008301493677981696.00000000
0.07500000, 0.03500000, 2448091110577451818123593969631915996895772672.00000000
0.08500000, 0.03500000, -2616998966214098712011079820851802071006969856.00000000
0.09500000, 0.03500000, 2655386745385062124907905563894878939878785024.00000000
0.10500000, 0.03500000, -2539119825629353559080156401003378927994929152.00000000
0.11500000, 0.03500000, 2283465762795696991941377902597074741895364608.00000000
0.12500000, 0.03500000, -1931252332006294487870048309743912650421567488.00000000
0.13500000, 0.03500000, 1534606705900391021826603275220740391965818880.00000000
0.14500000, 0.03500000, -1162080084739309913499580253035418437952733184.00000000
0.15500000, 0.03500000, 878339608604128160385601309447864033453539328.00000000
0.16500000, 0.03500000, -723255275164179508759415778943328173997162496.00000000
0.17500000, 0.03500000, 699801167167295868991151326588065787882242048.00000000
0.18500000, 0.03500000, -784823115273461867608403066683709719400415232.00000000
0.19500000, 0.03500000, 930160700335069848969012321946530272191184896.00000000
0.20500000, 0.03500000, -1078733494328292467301826074511127491265953792.00000000
0.21500000, 0.03500000, 1174054879486431465927766286773085118352326656.00000000
0.22500000, 0.03500000, -1173111467681698608930892732564589270607593472.00000000
0.23500000, 0.03500000, 1060305705818408248623648605994783610507362304.00000000
0.24500000, 0.03500000, -848972953614131701425884532843858342654771200.00000000
0.25500000, 0.03500000, 572965302764632066533593770565206494066769920.00000000
0.26500000, 0.03500000, -278137593618072150224755023304165708032638976.00000000
0.27500000, 0.03500000, 12558496077124690928546600082647956563427328.00000000
0.28500000, 0.03500000, 185925828817768589255051209906624482607366144.00000000
0.29500000, 0.03500000, -298006781901921585411710918394007296397017088.00000000
0.30500000, 0.03500000, 323279929146162109790484574565812358690635776.00000000
0.31500000, 0.03500000, -274506074146711831544433541456428247891836928.00000000
0.32500000, 0.03500000, 171969523093788674126584858235503631314976768.00000000
0.33500000, 0.03500000, -30648828963592735585940961095652109304463360.00000000
0.34500000, 0.03500000, -145963807364014034146754296663612341557919744.00000000
0.35500000, 0.03500000, 364316722560945111616504429113729599898910720.00000000
0.36500000, 0.03500000, -643125219504151982448126443078314031344254976.00000000
0.37500000, 0.03500000, 1010102317281932247874483629184596578452635648.00000000
0.38500000, 0.03500000, -1496736464604155813415886994675966065141350400.00000000
0.39500000, 0.03500000, 2130651816459939214937277070928259888722214912.00000000
0.40500000, 0.03500000, -2926211058811957870920480403835752771773005824.00000000
0.41500000, 0.03500000, 3874919687346155155292142999356487471472836608.00000000
0.42500000, 0.03500000, -4937490100233960001788599046671744711415300096.00000000
0.43500000, 0.03500000, 6040014164051561871849324097992592502657384448.00000000
0.44500000, 0.03500000, -7078502017967628259380417092182058559132925952.00000000
0.45500000, 0.03500000, 7934136022542482661472056060994641994109157376.00000000
0.46500000, 0.03500000, -8492960244789802991959614805047993252918067200.00000000
0.47500000, 0.03500000, 8661332647562807329500752780772952446624333824.00000000
0.48500000, 0.03500000, -8377586895446861313584365125187489155118006272.00000000
0.49500000, 0.03500000, 7626128392100234192440154704667907454507417600.00000000
0.50500000, 0.03500000, -6456634663427003669489806326169160200449163264.00000000
0.51500000, 0.03500000, 5000955700336458240232559048514106715967324160.00000000
0.52500000, 0.03500000, -3470518434125368977639051627601051593549545472.00000000
0.53500000, 0.03500000, 2124181226764315151415848539103905444530225152.00000000
0.54500000, 0.03500000, -1218310512594041365327265706221144366672510976.00000000
0.55500000, 0.03500000, 962218526660815883913121040334882029428539392.00000000
0.56500000, 0.03500000, -1494100142137248175735526550192974646300639232.00000000
0.57500000, 0.03500000, 2881756345666085236265616647529797854500487168.00000000
0.58500000, 0.03500000, -5146107201111645983571739785919162497250623488.00000000
0.59500000, 0.03500000, 8302457302884539476748055336842829551315714048.00000000
0.60500000, 0.03500000, -12407116487836066340579681994933687953024614400.00000000
0.61500000, 0.03500000, 17573802668883224913016401247988309703109115904.00000000
0.62500000, 0.03500000, -23949664538382793100092551926647485808787849216.00000000
0.63500000, 0.03500000, 31686686909877999491598175805915864283578630144.00000000
0.64500000, 0.03500000, -40880752794730887339696417588278436541618978816.00000000
0.65500000, 0.03500000, 51392694685475462575483215617226487928776032256.00000000
0.66500000, 0.03500000, -62606115704448876622101308278937006597361106944.00000000
0.67500000, 0.03500000, 73356371288094161470918907888523610905221529600.00000000
0.68500000, 0.03500000, -82148918266852571761332734810317091031044063232.00000000
0.69500000, 0.03500000, 87491980115304925037030961682087080752691806208.00000000
0.70500000, 0.03500000, -88189476809411956486848712256163048618033414144.00000000
0.71500000, 0.03500000, 83814624291935585989438270093137820670400397312.00000000
0.72500000, 0.03500000, -75169361405453484507682650619790715030993895424.00000000