TITLE = "Linear advection equation"
VARIABLES = "x", "y", "sol"
ZONE STRANDID=1, SOLUTIONTIME=4.3, I=100, J=100, DATAPACKING=POINT
0.00500000, 0.00500000, -207787780794249580832296789819720186004767564066936797306038116304656416627047219981893909139605092670129701436751341388901975338806982326110660509152351095343997216488725797653567576790607469857472512.00000000
0.01500000, 0.00500000, 174065408560304002079791115403400472751239865089433135880441252753393528760175960674200377806752245804689446314642374583651030503820015436387803541258235955076613051202082995807863238258532035124527104.00000000
0.02500000, 0.00500000, -139723896930972985650274870413059373316737824163632280059119723995236931391700763206490830015547621790320946317301519724833354507182564290986005567460306740888693742492745630085311149202950572711346176.00000000
0.03500000, 0.00500000, 102563598569967497275604407752021364140961746210560376865764051539264270362231995684172822330939181058147277412046751012306984245958723098547481961816602712571880462600328335567047089883474917739986944.00000000
0.04500000, 0.00500000, -77387176439530793704450050981891469812493595632404556768395632535379843201104955346555263698871855257442057380551560484240066648332786967227188658721366290308894638039813956791521758304501336626954240.00000000
0.05500000, 0.00500000, 56724358329919577653183110787879496906023719346055101544396127550994105369123796350039997015623866479389218434710863306020299377201810392689688520452849732828738903146359646219297542370630485105704960.00000000
0.06500000, 0.00500000, -42539894094802533779384112008784143540145006475667600057980470750461359126480400024742539653613847068424742726993204826357252518869157999240148119946707756296388777957065834073008312159862677347237888.00000000
0.07500000, 0.00500000, 32333506109578118669290650560757008914712178637377053731511697220385467160150779401579718335826972060474594065492103702978552515206366811399813312805267414867643714088603760730053327571411569391697920.00000000
0.08500000, 0.00500000, -24500849586507653816278799686013198900402984238612212403532400685748638700235099798465767690661484253856728564475972693837580980860381344447216382478322536916819248352277461455253522074399422724177920.00000000
0.09500000, 0.00500000, 18251522432348929866646114492050374224332643673503305795411116953707436570489904460775945450146027805753437808454656972825460870320523526825664196585005732732503980915193154063384427795155072894107648.00000000
0.10500000, 0.00500000, -13290433916597353212032691504113190613797173430786251446645304405595921655245954966919808826565980577881896445132065911111243902317981116300869026431973320375363422967525100929627441642399260295036928.00000000
0.11500000, 0.00500000, 8980430796972515524088441854660878220737104410950070908285891645843938760062932708473144262475812752063064459913219759042017079594855565719869793126001136889563889754323751001160296966995112018051072.00000000
0.12500000, 0.00500000, -4616941096173027084723925769172957888196869079752398935379325931040065613779368955143835743419747617144141269921424112174799229278743906128462321831848359807684256072038265097992300703946984533262336.00000000
0.13500000, 0.00500000, -99619508944823978498739429471779864191749850307742253634987324496429646585872473457656195235655637772933440336586476005389337630665706072969345868766879799377992201118662893530953871096680940568576.00000000
0.14500000, 0.00500000, 5273278616882978298492440605250019601670330613922682734096302747730504543900804188407973231648386664916269180969514970703609008391721513179411823105452798061242553437621503413426484350394750247895040.00000000
0.15500000, 0.00500000, -10651834036435791051849108425931958057678471314971965219731719406602314541275061896057153942147619593402803599026662634306857188824189700548478612080725649349226681828173982755812204799600656247685120.00000000
0.16500000, 0.00500000, 16119943378993169537370257241131747610543090943549257682131098033060602114769225782566917465206999111663666219950575233661821782701927532769951651330548224226689252225373039994506178525493646078246912.00000000
0.17500000, 0.00500000, -21865821439401670533360403719729488289566113355252483731047539253257236592338075913198408869929191039977341954359522497454948914334223609095403418308222898198035035361716940469443263491545563584790528.00000000
0.18500000, 0.00500000, 28311793570108725327628735958338579943557669511004050975475019630186301634078425811997954975695406530718207739908549309808351300628407490311688091609933724226530031429400636781874456488100120523440128.00000000
0.19500000, 0.00500000, -35615524853173950058960753962451318539283657627193748652786414027973382300921589392876295047522918328462990338787148686317276641067642758133444654172019260893788680347028635208173199267945272039178240.00000000
0.20500000, 0.00500000, 43833234945584659087782783596210593019589635972946880422576344830003093780116612627350724307328185807490688615971371502112781888905820704557742109502666653678845111327589426964350011932908583039008768.00000000
0.21500000, 0.00500000, -52688570371688691035495234980415578810862979343607731355733452262272643327379527362506942649467381887274591945044958046887905111868810635093378391671829620646581585905373997552460582510021342627102720.00000000
0.22500000, 0.00500000, 61925125436938196923587471904986412064916376056495615559600967897733581748589854937145586132466083735475428514454459089191774375486179566260528407623032483616492895612792157693365153305434801511071744.00000000
0.23500000, 0.00500000, -70953492024996323905725765535454292147966694565132620933756209251157330030948603218515753391843678141040590210277194303581877755488219850712744257235688396149799533960252958151457170022729633807466496.00000000
0.24500000, 0.00500000, 78997482233833324435719974939226281719482478169355785806787693983763528366477511458750425968753912705963443315187176807931510434570097986364749756353083762732073984215896324094569370133627975334100992.00000000
0.25500000, 0.00500000, -85338827951220476244843528215009092070693208911208570285040341037300058277013250373972647065541063319286331798302807059677274731364272707829695071113585080765978720183343924596997717923962665851420672.00000000
0.26500000, 0.00500000, 89606892818274999151850149292606820821319229880790333334925058931499840523070801090501428406371879246558110884108863205706016328576026798854663694098065993768842903163925457658967796883842689830748160.00000000
0.27500000, 0.00500000, -92083377411293479037092612856465254456101817848121145030862050729118018729418359734924104083567642656823218773928323810206435737865817767138454646783624704526251969152867268706855755810432287613386752.00000000
0.28500000, 0.00500000, 93418081981122185676634183762478417446327323786233254431232755240290060031108027456701479263411035519527933528821786683212447114452737578929370502760722291041145708272466140968900539951467316610334720.00000000
0.29500000, 0.00500000, -93806572099280431331388471271133951563294888483547417990086715912773235783988961200256190796799940271713114882543705670642655897503158302939977614883494795495726105741539661467924062560661695530795008.00000000
0.30500000, 0.00500000, 92897888105963970558099441458442170865544913405388226882145670751646999262369764042754755946616984391272690223872902661774682979412721531798693111917016900646486492706821664305693875031954717291839488.00000000
0.31500000, 0.00500000, -90552935445307144736895424755346571896724365259105987359422090376802989593727006173355118081950122831016508687367464425972960923511157713157387903423859709544419319960505712014533560099794548739276800.00000000
0.32500000, 0.00500000, 87155446545373282399943273363166670883174023282856527915053453158583618604310453568998587721518206980005408794705830598070611341517753488559063660415963009702379748983003443574357020546052032751992832.00000000
0.33500000, 0.00500000, -82932623120190108262522294443261807656274042196709138901488816959029993604946587522967937907011896763509976771512324599256519356305788433405060852994536248511284586330966608424559948532752948263911424.00000000
0.34500000, 0.00500000, 77937249974836147175042556925002292489538549466471961936671398050227386843781627392107633863460895714614422117631416968839003050716671146760757982645031755684931373902958968600329886161753594281328640.00000000
0.35500000, 0.00500000, -72253334422449420621759523278025991668987518810756275458297541612625506963755344438880890268283630951134620583569803046879254902488721839979644385210075456705087793632147134192569192681321286628016128.00000000
0.36500000, 0.00500000, 66021806140342564495853069365062608212649409426117509250469469508663855498590465237422333937489798721280018625165452176430546138445274348364481605700594635623615076589369254869456935883874759329447936.00000000
0.37500000, 0.00500000, -59200932244504806949916653025129753266440601145659446789062446406335418827381154354127665586304505297049256088258271652109979161154847385603122543507662824415205111748779871402513163501170870613704704.00000000
0.38500000, 0.00500000, 51656497681048656815195889867968331293422278275534935910306543522819492910166743438092366855991775565229147967463452442322578639961272200015173735720570516724935635959292384425653630006854861904150528.00000000
0.39500000, 0.00500000, -43275019358796597053261907460710222079319531850523128042216423877117493506531521050377237515289325764812616265752528938011830923854940488052627453658555844123676578262683920515305128182110103789371392.00000000
0.40500000, 0.00500000, 33998168995902386446387362132638476986997116906113683035265422079318160390095310167827160711644263626785489167169168658151479578448021112980538280751067751703144176509240095906456161114889599039045632.00000000
0.41500000, 0.00500000, -23870163203182630821009826074400458004774814074304021638697937785651266184919699427105148915499308482048180460852971319349367355038560237209414728193633334186469211312726179633039293187009205493563392.00000000
0.42500000, 0.00500000, 13146585656434804853328393122002394874222122817750573215181937970056796134268547040168248734201556573038770448363218832031617780886127464667578847904103460511884113004351220588366324081426742814703616.00000000
0.43500000, 0.00500000, -2218015167234184604882498353359179728715931028106016591216334368909780525127996696193818570591862450739363286707507679383508526315442870639720620713179459728966030277502116255097438689330355043827712.00000000
0.44500000, 0.00500000, -8636736985556228084406508885236998997906873896673092101242213562984937498848581373012206103253241533007776093586299585697136166611947637934933245201124145440302208786584058218899068672337260335595520.00000000
0.45500000, 0.00500000, 19390584006370050380088766650995931534306843019275149794431201543155656611576002455285375731893529775101808227944866565027515382148856646257766828063919773074112972419719162830174335081406088932753408.00000000
0.46500000, 0.00500000, -30151692039661449774434153575474757389523869957993482395945503257518505126957301365099348329012734469764915811265996015502464581929770798092542370438309586913151440067630814062129287723981763449454592.00000000
0.47500000, 0.00500000, 40873954048077695637065329496769276558118016789246034457562509222922716577559074769029478374881028371453889520053570257065731283554255113629889376665053219201063068650590579531875856179900233650536448.00000000
0.48500000, 0.00500000, -51344951020069929243833210114257003010330422850767168261325901817804974469546882520719825831382636255331910954358923168081354554137914989667859840864640360616391255728432813855156384679428589266927616.00000000
0.49500000, 0.00500000, 61487310501926829964015298870471790409567421040428679618440277678225475290156578463539681890789787564877100277171981912231932520591255680567829495501622210514778627043948684026542309318152521619865600.00000000
0.50500000, 0.00500000, -71443063573047485409059729312997549985834485653437514546747746842040404087521646100040138300107207368420357947188908763306174440387061037960823710002042370838460398932663134835953878804464643839361024.00000000
0.51500000, 0.00500000, 81281015314569571569670478432381720807177889765630778814624549540684406318305279895506927510318747838385385384308034269354087018554647900746098278502958906226566243699431823943466224862378428727296000.00000000
0.52500000, 0.00500000, -90887287702124727500396440305280199275567609903972563828458200216915924824141219392319758884826469909918263943427425530193205414591937304773914874627478969426465755282545039647201658136643596233736192.00000000
0.53500000, 0.00500000, 99276871430146139282870943644797405064131384606852247740577301398242834167270292549777976092217744710996149947416445203564362335179468734492550338636108159820867424049777424237812360030443251825639424.00000000
0.54500000, 0.00500000, -105599346901398451885888834037941824393112400603970200650576251840347562153359925673384623110913106396235790272525155360504027051312416169745712807457948161719651977156052895314815198022511921685594112.00000000
0.55500000, 0.00500000, 112650079636368534379954161609737751870537265720339616866751085762479782847422104355532397439016095528439151642311146495051607070554087874931646375484849383727951229416702612450504320981752993286193152.00000000
0.56500000, 0.00500000, -122815619727036431047303890824115108223958319682723114011226031725687348451893709120528971967065246937487800111489253484638955195221427487149339209941512953376736205190751722975125333949488168062418944.00000000
0.57500000, 0.00500000, 132847726481372692575858531949096832200577017541425774560633272364891256096595363880941506202481878164813987418412802345006583913982259176493301219368725892393363840838784290100180885291374825170796544.00000000
0.58500000, 0.00500000, -140407294664537848972863462328736687394883608730024031321336574803445670965893974221966274273202890441395784302362610768524306250640741337880846122723622710232176900243321670722866056133368874000187392.00000000
0.59500000, 0.00500000, 147443668632551970733798814665873020449483450363624081851475958301444581951379441360594937348168600281103901195624539737844705789798361065064943742345159104618969651982357568163000573684755203692167168.00000000
0.60500000, 0.00500000, -155407202711484180648666943749761403183245582966930618736691236999595715430284793537551290257741153739441159034510891282194325044681839246538474657951626041364098409695080210414562636218270782274404352.00000000
0.61500000, 0.00500000, 164601996104404647285826640432799318942703132836070376445544498715694549772739826863626458348529462588087864563110404525546361669005478031902950862390777883273534835384536845364905971470929091010494464.00000000
0.62500000, 0.00500000, -175928874059436336605022909101675611494950466200632028003563262826198335553019397002928216279536132624695690482298251352450468797305816908002091107357421875466864546659420397028718175342461149174038528.00000000
0.63500000, 0.00500000, 190423690370851074809185503509455497438702786918453113383328973308898874500557859386341830463918592501897091558090782368852387659343733891399641576226582540578550721594880819461975444853101767585431552.00000000
0.64500000, 0.00500000, -208526831092182342784168226560361571292533549752042643394995931853792832314954600652845878013441900930741922448902323808955927249545538952432586543444830163875856098985558382174776289865307740084109312.00000000
0.65500000, 0.00500000, 231009735956178365925302237466226182172072761926783022878538716189027860771394140760908193781552229917650583068796808193361038607831545961915050821244119788876290052147267804532369443645239042129264640.00000000
0.66500000, 0.00500000, -259902203133000538045601794352620789838896980749091107563219269102271536167601217815694016703699928314271937454652120627621413408071079508925023128779240697524064390930726117025538995614846723089760256.00000000
0.67500000, 0.00500000, 297537103041064954206882475754375860998900464815206504910998560359422651668743935747111529852465846466016637809851274777593381193252288214241605907075822712517143100209530850133398346227673665974042624.00000000
0.68500000, 0.00500000, -345017375561595151393183885313033267743363089461795005366975559016076096972683608412587850918804275131655038203562831784745726102443178294458587746917379374255536383324716308802559008462736981042921472.00000000
0.69500000, 0.00500000, 401237144660633085991335679309604110373715030089768915459760372098983761459248144531654687707592519925881600738723211792780651018896640246518870805726571241259141679017115539892404355330342278559432704.00000000
0.70500000, 0.00500000, -463086404481747360606598140968543887500140601474975488373263626492570387509341511218896698711943669877367255249829337799620726680459317074176897555847758785049429942621170479655236351019893595874263040.00000000
0.71500000, 0.00500000, 527101859717468889349754218056348831113675179119160537469080326095657278938653712383697379913079821435573684783595261449114436124032745053558755526951486980958463046538054394892861968214215281004773376.00000000
0.72500000, 0.00500000, -589926635046677816493061325787263538493557792755921916054646617327231373287470910593313129760496472572507083591000779980264214906734132256614083361023460595982334302251007763698297041963050297836175360.00000000
0.73500000, 0.00500000, 648544882317329620836792008465011724920848417738144169467565410484273016402308747312586179457136295689094397958008111539256034826111045304405153726835704808585138974216025320473022509293858133328789504.00000000
0.74500000, 0.00500000, -702835015329692236189977249884697917940617808204301336573066868127235296435219338990312609802226399263767176578887656251645752874880801778948466082498488074342936299942548627853364801933421213888020480.00000000
0.75500000, 0.00500000, 756936449569497857573046928469730048793985129620349226750987205394230948416872956086845119984098199651387089250656856476176911698036993951997847092755431983466280304227055626351550050286450113075216384.00000000
0.76500000, 0.00500000, -816477450014302091385126281996315641530231244169459704769774328227519740895715478491283837570461161256992775175498792170321120579252570889339529677825667977733718348159281091799904395201057436544794624.00000000
0.77500000, 0.00500000, 882861543471996125005030756687926402498826930962764991344337640426694140114342096669303492690257359474398385207607944058380401143782387276771486227459333250076726456053147658566952588987246562596880384.00000000
0.78500000, 0.00500000, -950742444927767990407815059212820640008952448080111916338433884490738446525567008663539704890911224036147854628256626910777423413841613993320591011201068637655835820181209736176219677636946085002870784.00000000
0.79500000, 0.00500000, 1012238694819444254832288025098298856489095264718676658657116744793593249976066397624709144013633506962569453222183654712143358181978507500739971456063468126603023832439694614680376542143955814846562304.00000000
0.80500000, 0.00500000, -1062557970712143234320731004252838233352865427048598936884227779828438114212506137632146558657807784797811954552866611746090859328265215826935743249137594995089539127947598399575628045681376958137499648.00000000
0.81500000, 0.00500000, 1055991380281112453976946192688251265783522952326619834605421201583849340216292520362855310952428390933465773744050956575523387021792895629834866332102131108060585038614739387907367259805514882680356864.00000000
0.82500000, 0.00500000, -1041584252802720784866319082120958280637996482401345010853593677541111644762682760774438648944577584950109315349449510871969627997116013470136785417621520792713624401871187155533556636584855631812362240.00000000
0.83500000, 0.00500000, 1113159939387677273215784724577234004560333122355826852249809478664612475641574690175528994515370592048673882722244165791068945606452266511003998038447204228999906905066981065815224957343440697840107520.00000000
0.84500000, 0.00500000, -768111811907513475625732700062649895036445205014834402884092886335666554198465313332609670830934815061076710100705687270757582928467290414503360584982346855897733632117120885600762627713792112513253376.00000000
0.85500000, 0.00500000, 1153025803428166050244153516315124496435222055851000204971548488158578216705468669817129412174497270862689008075604937837012860667757160852976806283128180224596177964482457498082286702143845752480202752.00000000
0.86500000, 0.00500000, -1115770977411657186646024561732190412889650935928253209972685601010707908749080604109368679170387568908467040611763974269749623121724091380512437559139815587236522003214424192203714240557860389207932928.00000000
0.87500000, 0.00500000, 1071708884475621770430031395565224926483779219794726183837221966286091760507908860167090212502665574022110857543069677338991613352805011107174978494750426802787324854036993912263646191881827159673667584.00000000
0.88500000, 0.00500000, -1014814955824521832106594071584493557030405827277652398396316541152682060560946571067875364774299191370610887074226238887053552385849671720137389885828525571242779701726571996226880152635377257516367872.00000000
0.89500000, 0.00500000, 951258131271909383667566482505062442119048774577580910307349485748972818234574087583486550565444995486774308171713089242003817769847439608547512156929681388246315763478720168475202729343394750058725376.00000000
0.90500000, 0.00500000, -780991970456041504167201946900795437604468153279358485723882285042217655130149091768159817761812684430555352805974471062489312687348617472040094591167193014312014951556235751879293278153544218705920000.00000000
0.91500000, 0.00500000, 619255255570831686992327563915979765467353379295379667840962136899238266556759198769080840123394851647164824441770420663838062079050506690179796349425348959740145289260639755633271381178707508113440768.00000000
0.92500000, 0.00500000, -594846364871562350210718323516083350772799047660546742116560710723737053771087174473121221812734397395822642129517946551551695844537979832576907645369146439396391132408196751671245145605293595930132480.00000000
0.93500000, 0.00500000, 561219031750092756756073183704327762624542504138910476178344175630960856224630286069311999409023192672916601888090790937528578953361975246916706160539243636936989376198672089389266999353148214821781504.00000000
0.94500000, 0.00500000, -346249656180209047011553288510745030581192443925754851220482280244055805610657879902671741688936300222213289199792975899297803765393224094350104234432881195976783001519891045443453851549456310693003264.00000000
0.95500000, 0.00500000, 490953325664904666727198064922417289927045667918253473272963322503336498683801594776508067698001905493102608459174399469553408880158848222956172108788846936033032871148209871635137096766064519433682944.00000000
0.96500000, 0.00500000, -427269789705165143061264521491155744165286588694230916601769158288587978416067764207703563181396788313067679359794602679311693296480211972407364507960813289273186087283691932904094003407586312083996672.00000000
0.97500000, 0.00500000, 367837678486675936876885604186552479012379424476515469874444356648599956518538533094939855532576852930858079237251555251632510823602886529581795446708300824535942256211450695720189384997001677936525312.00000000
0.98500000, 0.00500000, -309400124994032215951342934742317168060971009522946103483484215925653527617804587767289640148323467885879856723485575271451626444367814241405329534340754098196541693617995195656784868878542984766816256.00000000
0.99500000, 0.00500000, 253224732713553142940140394007830871931916755153246208407105908073210097820920842603852240383463074708477204476794293401108297244860004438326374791644844698211204284796567612928802862426264719130099712.00000000
0.00500000, 0.01500000, 202545978847269295398070043221027836441744760918070687184549896174549404953459311443708425132328195460124216092458620806931736434967664791341610414922574424014348055950061233748273388278809301228716032.00000000
0.01500000, 0.01500000, -169683066934517597863320456259653389025436049154582448787868114810387949730389041594259689910438650476646851103850151139727201931222044279703577190695413022576759071092188755135638758131709872640622592.00000000
0.02500000, 0.01500000, 131938403171551850166425144450465374210651003798896514821367048069544751043281551943406922253334261714059548481714082717111895794914136436026910127469319050950391723827678300284595732157116942940897280.00000000
0.03500000, 0.01500000, -98679547681072708746594177054779035820816352009664266289941464461281995204391852873407506700847290925336484539432928135768607913748498227010235806064436074374549891038844135350344457280966382009188352.00000000
0.04500000, 0.01500000, 72142507680105834948884089818667261163497499057062356700444862042568340529345743277148542964213160810143675995915137305682091418924172049929417470190789190807662198536905723760928405813633775849963520.00000000
0.05500000, 0.01500000, -53070234676208791750444241171693898603464713910084707537472639547833853814661959321254358752845882887949583988625524573035796069013747478073928351286367152866049416040594143551228219144298814704189440.00000000
0.06500000, 0.01500000, 39339471536311325463346583491691994205307930375673725288762399390553765872907527713094304177982683579168215429771173038695796500831068205262756091833964448125189537421235917629060013085051544968101888.00000000
0.07500000, 0.01500000, -28685485157535285384936068046660308770006964128811620339279286789514715087677446140990559231335437469384153367733334851639150140358708789038768869678875694738404718922568748909779694497128236242173952.00000000
0.08500000, 0.01500000, 20181649415928855047339524921600866052273026565815575482319614124961640176442377361203215800622841604427421250938059387696721909020205966957927142731647970414153839672331174422587613569289655303536640.00000000
0.09500000, 0.01500000, -13369099619992135522983006981516124272057012587273481633742671685732153275424887125717041604278167081655965824701648463299538934618441918696909324692635348034338751071895471895535299290884763765702656.00000000
0.10500000, 0.01500000, 7556718169455994636618352608632324756350109152566426155124883880332153110487459244813497215202337875572375347813245879753692945486509534261637485165103392434009348260282323485913070831453665125990400.00000000
0.11500000, 0.01500000, -2010778607772543614004089795708837112481141189097191871866567895809942958176086655334717590541007649379340887034830556319976885247499486646114269037537579347091571622877902883706150818061763523641344.00000000
0.12500000, 0.01500000, -3673846983496304751356728964238993232350852532439998562788147360800388213812388720130295211811748699480968046179623506019627228864033665789054619152803445479701422786762872507387227646026476838453248.00000000
0.13500000, 0.01500000, 9713949640046910182843651224145376298077565177373388764643038828203444332661621912483137100448754779508020376839282960818436050433840928563771526039884309915796898848881856581514020134161659516157952.00000000
0.14500000, 0.01500000, -16189157706998016347879536332164217790264399444875972239892296752054887698715300453472488328630672374612674364043332087458119090786391702947341673945643348982460346343426168050835218278110918325829632.00000000
0.15500000, 0.01500000, 23003412075053223233890075057112122198507759461147819236807171600855971901574590096556475513789169490668360298463385588882124132140410665892411808104601499041332302500502434336402804493817234572967936.00000000
0.16500000, 0.01500000, -30147430673924227946460319569430736326658670874397018137930219236809448535532815719252262475833678000039434517091886780191991013408930350596648757476208399921501002994882471034425733782185942265626624.00000000
0.17500000, 0.01500000, 37960217303569054921033710202065902380893960494402226898700389993245612307968613298989050751635961320130622100422296983746134157582756679180633696999237649914302461939953169334180842228595302630162432.00000000
0.18500000, 0.01500000, -46831397473957030993777687734772283008746256086653621034258106074584783645609268764347341927396628331072300959177363024640604947979531633444045218926470106567767198162336067324921468679931786864623616.00000000
0.19500000, 0.01500000, 56791414970741701776663190652059819071147425938117896017922855760340480090056155017832841383358299314301033001984909088483771856817848356479119387873170194348737396377032991990238085247921625919127552.00000000
0.20500000, 0.01500000, -67585642659721069614492347088960909224904599556098422197474497830373073685444007456265044810121833269907846006207044033115045820253671599562846860692006357342640327376579537998285851324356405466497024.00000000
0.21500000, 0.01500000, 78878818314402820514237202665080170433595079707397332663068462342243809923430134274169724234894740680543050024355690509250402891641959271935084066937877890128047146020509742704198825276005812315095040.00000000
0.22500000, 0.01500000, -90185768659212044612415186514677505149991034032343714483324161237655831478727967449572660632860206024654603156611817684502486051825105946643170578214718777388717111693070594320069022285366490017300480.00000000
0.23500000, 0.01500000, 100766784070094884056808927524155313670687956648928410225589600308242261384152527020231033290041197132098350918047812827598702500989833279577559096119113712132416707037448357556902142689486766100971520.00000000
0.24500000, 0.01500000, -109686617731758162866009303037008197855453939276152739496654234365521502517164095281839641126884649075415858686409408604150422801050959440979103384492786896299787074471512872444705449250300926567120896.00000000
0.25500000, 0.01500000, 116058823958942045457165118443756394973270229246398967684408350456241625870672128310123135554654122144287485327255647624410205389808200737247031121495652785975136169072962408870348336421530708889042944.00000000
0.26500000, 0.01500000, -119578612231384064341040148939196991127453747571222819933798222469984792001481986487701819541497857801454697828387825560705854339719923733256273519520956090295022954863996266280948464704320468588429312.00000000