TITLE = "Linear advection equation"
VARIABLES = "x", "y", "sol"
ZONE STRANDID=1, SOLUTIONTIME=2.65, I=100, J=100, DATAPACKING=POINT
0.00500000, 0.00500000, -1740578607284464407344984011772745490628281962501582200088313571398106352096146838608057922543265630714210981906187550720.00000000
0.01500000, 0.00500000, -358902650058523540403196522541772407136408055678651621006996556900087786267587852190906922973378213387195501395346194432.00000000
0.02500000, 0.00500000, 1757964006885668077173355673753930424350860506910340729535111301426470022743809628742971760769448019074898387687083868160.00000000
0.03500000, 0.00500000, -2825980744996316382657293942467674319402105286510306480441046182064474381273170443035225792395161843464324638712063328256.00000000
0.04500000, 0.00500000, 4063434765828459634425464077168527835418779817419800683775558088345940308448084902405965221521683555455964902318571257856.00000000
0.05500000, 0.00500000, -5628173111585984868016549244184637454716802581847651083545059344194775394459338722768204943863597930855617651571240730624.00000000
0.06500000, 0.00500000, 7313436273909052176347285704917651488948386838251642607482511513012111928709302875402686036006954676313237882106867089408.00000000
0.07500000, 0.00500000, -9104856289683863176713051368302168134824077660439697117009611635588491267473669206863515309883214959847809614212224778240.00000000
0.08500000, 0.00500000, 10934044576196251252143181878157228746583633760623614834621317962897375839750055105465766725621764496888347504659363004416.00000000
0.09500000, 0.00500000, -12689782589533207148894396026850614267264704997520414896002033830600880120266064632365288333486717969945146627476837892096.00000000
0.10500000, 0.00500000, 14403913403148938173901908940680859001730451905792692060272485844848177620644784303520241841442330909523165963519988334592.00000000
0.11500000, 0.00500000, -16077522764617870056366733430440443278695370097720790737590978877569376892021210078633055973871098272709858771326243700736.00000000
0.12500000, 0.00500000, 17654356781167967477573612438916608574208001110580437989145156306189010921927835681341337814067857182357829145605900861440.00000000
0.13500000, 0.00500000, -19221582255547623630518312442527743883537296970801551337032653853626728492133546311095770897319467706104440771826191171584.00000000
0.14500000, 0.00500000, 20970762193018264947941445190860922571604177057162285179571524960980590296944426948244002052468853158518712534461566681088.00000000
0.15500000, 0.00500000, -22723802304732514287199733704202941304595828531523427686069113614881443156757249222180129106774387870319290520691145703424.00000000
0.16500000, 0.00500000, 24119870524410845672710423391458139059424166312379762970444958723701069592815294802333620228339171482167765736412883714048.00000000
0.17500000, 0.00500000, -25115123127721335534221344639869668368302191074535876480624955168091946721589487485043773522958926530778576563957496020992.00000000
0.18500000, 0.00500000, 25869117960053754053886863735714505262114649788599863197773129855796731794746425206028971826698043725002120090575995666432.00000000
0.19500000, 0.00500000, -26574360128581473383225482312190494432325283810252538183794235403784525749984965407849338818896105112232600558436700127232.00000000
0.20500000, 0.00500000, 27519686439220485724172872970977923143350098992950853435303457835697417399667598447418199336248462362214354441119375294464.00000000
0.21500000, 0.00500000, -28945522738687753443913849867563242464446344666299870520418781102315019567328177252946882946351699454644223050884034068480.00000000
0.22500000, 0.00500000, 30676906851277550858616935384004359144830005542679419178776499230610259907801886476342008425967695137116264191681829535744.00000000
0.23500000, 0.00500000, -32024728990027278628303575127279439397778364528224210686927649258066195203926250422135238392739438084936142806106737999872.00000000
0.24500000, 0.00500000, 32184916221039160948862722316574283663570101699652579881222604231050249446753723856139551628442465363541647426666918576128.00000000
0.25500000, 0.00500000, -30709851477490227333174572137173629366030428249445807050052760381620832528908998568914860167649254033500819127253724037120.00000000
0.26500000, 0.00500000, 27748909761220843744201902419936363221992509794596298917509575520140976117470117628621280198738511514101953549257100230656.00000000
0.27500000, 0.00500000, -23863924703598054042481612652269062013460642364168817800834594184643221332427554690474938303373355030112205919203255910400.00000000
0.28500000, 0.00500000, 19624239407202825697745202592300608260933706848075552511951356928127717840311857498805627081167098762199579075120354820096.00000000
0.29500000, 0.00500000, -15347513698896788424770483460151596875340881876958754805707095543489764567497467142268564010532437411113539909559435395072.00000000
0.30500000, 0.00500000, 11105491104207466248682611288971097906467056768566595161916914937178643483659759439130708914429634307432070567040861077504.00000000
0.31500000, 0.00500000, -6815529775046773066385934335374947825235822052823259742884850096856112765172043057527145573917555545974029474023484686336.00000000
0.32500000, 0.00500000, 2375814553903407245766297342650126296316903327453377893243195786270723284582292782233034848429700181870964892791556014080.00000000
0.33500000, 0.00500000, 2199523492309697834527626842019758753091099163769007875326202885366403555071283063504168996672203931016033001756663218176.00000000
0.34500000, 0.00500000, -6782703856363494025464772807169479346032746863752845431051930944362876821897312030833175803734889773891458059555521429504.00000000
0.35500000, 0.00500000, 11203724303088752576164753542592112677830584259728318153018912423715009987921565005337943405583648965750101129344107675648.00000000
0.36500000, 0.00500000, -15171363695643548755878649150943639828706484676052977126102611692182851580140273716367618402062183098870380850122393124864.00000000
0.37500000, 0.00500000, 18325751992279041211757841441241370880619957868679415347982836350045335049775027014125928582193618144725031729408688259072.00000000
0.38500000, 0.00500000, -20460214059953836768314276370218929616797456453889434202107709978089073433771727688207879524038505110704168771049054273536.00000000
0.39500000, 0.00500000, 21641414667699023704410104778729547422768051822242513585615351556325083015815767247636530605216093549764950706187361320960.00000000
0.40500000, 0.00500000, -22063044684928757781839517385643381598034073339823104047992160918202860010505532307620547090110888752653143832705525350400.00000000
0.41500000, 0.00500000, 21738435994052875046475272740609499902315391193044591899680937665327053140311158372222119120983466933567995860881279811584.00000000
0.42500000, 0.00500000, -20316487431304958300350316736110011744312654782234868233600830481499797204622828433355027958542221302312599521010200346624.00000000
0.43500000, 0.00500000, 17393710210939451122764462520409751581530987913232714708757931867835219390703710691977238119994348135831694206592723451904.00000000
0.44500000, 0.00500000, -12835564566790876279631298166856511268141538056838652014710040588825625122583871998200145726625834827383753149719550885888.00000000
0.45500000, 0.00500000, 6602005919381278421012915547862446890078190105177924287392097276711637194884137930359883625835264865303158276058813300736.00000000
0.46500000, 0.00500000, 1581783194824378502292439790068735562324407037183036713742902745387502788292431401380060944413477940316201837644388237312.00000000
0.47500000, 0.00500000, -12353650299496936082901629543868699680567420279917684099897930105400294269627233359919688284128024519047175505643053252608.00000000
0.48500000, 0.00500000, 26688436207118173017840967570239241819797106015302587701829010710546709959602053362586215161036217860870778737248926957568.00000000
0.49500000, 0.00500000, -45679013531423829881621854534435377300132543725198414931916995004065656473961603176497823940881920060297994539348382449664.00000000
0.50500000, 0.00500000, 70352834127037120920016016867592462222229334960294741857719837091399169831184166270800101986801140860102040170661492555776.00000000
0.51500000, 0.00500000, -101815097736902231276265810416108411570388586703959288942331630941839487277482995349043299557198068253825051739405514964992.00000000
0.52500000, 0.00500000, 141323736751197732305314279936035819162748510399372039892161847307029865001652555220183683317273881168441124947130526466048.00000000
0.53500000, 0.00500000, -189856737177322079830191861399049263400322325131447802365241841838141337149782863910337961108928813071819278175893945581568.00000000
0.54500000, 0.00500000, 247598151309140669776357518330735165435377993996100857530180865162764430902461697578888645863561010248923697088668475850752.00000000
0.55500000, 0.00500000, -314236914088301784377061348591817301546073047190865030717563522139739821933739964995428689612100507719388116735589991055360.00000000
0.56500000, 0.00500000, 389864828140719193815375151520857097702646734551114389954785544463313640337347225472798286383157838022501814537658138886144.00000000
0.57500000, 0.00500000, -474744053359038784215519251758385239802596860749383632023064281254070362736720380572069041922187699092153871757261813055488.00000000
0.58500000, 0.00500000, 567664939938936738438519481506306638753795702938512704185320565066928254151149023204209793147509949106879569438902560227328.00000000
0.59500000, 0.00500000, -665817953213889249446812147285109528726540722743907155132855177635577393723945786641043175185075910556716964175970436120576.00000000
0.60500000, 0.00500000, 767231136847624134448690085004104357423910893276537494910018834880062293258766587269853378678526886415052928722513973739520.00000000
0.61500000, 0.00500000, -871990974485361050470329242372458927030263009307727058834784641397008337633605373174712420917185711325923434806351954444288.00000000
0.62500000, 0.00500000, 979196912818322745201567839072044116393205806826485964983919372834629729232231414460390871813543623987952816763665880449024.00000000
0.63500000, 0.00500000, -1085168991095540156973041031999131708050916314578082764387598227457721796502271167957852235304440954543608488207680605782016.00000000
0.64500000, 0.00500000, 1187088051284543556847029398905886468243863342750605373685851229310562451855670159811289354921136557564931866642971944288256.00000000
0.65500000, 0.00500000, -1284342694723911148355683358295884553409159476197242379986721058165685540703758410725861530332794004702961692378496849936384.00000000
0.66500000, 0.00500000, 1373226844195482645186243853131091781927916660450892382478468191729419771281246469253295627254464802175573305280428939149312.00000000
0.67500000, 0.00500000, -1444812290993588549133311749186411590829145300639601838243376636635382886763059913136768636993245546120776852516333170982912.00000000
0.68500000, 0.00500000, 1489562286352791550757171811871059846388141394623241847194866705467395892953578530113576732718182614956982760717580681347072.00000000
0.69500000, 0.00500000, -1498932211332986673585269742907317019064961678132452115535051305999236754569567517196693972070749434971387705296591286960128.00000000
0.70500000, 0.00500000, 1464945338163224583364105339047184158443495931459085951480568766076278932165690408646466300972994992212875537656267451400192.00000000
0.71500000, 0.00500000, -1387257278348459682626080916604404271600030748240478517431281407565768190610148850976398838555036623044731733321129446604800.00000000
0.72500000, 0.00500000, 1278909850612146911187741909337809974746502164409169074180688070834470848291378329813524332817073338631544742361223892303872.00000000
0.73500000, 0.00500000, -1157615497539119779559973763784608955832132404138378722802602643858116617138141436194265267755529608578172195891707560067072.00000000
0.74500000, 0.00500000, 1032311470906516562716266816129776551635013798014863203038382261842582493660128024030957430747827570947130841769402374815744.00000000
0.75500000, 0.00500000, -875368249928400890830543790494568469820749962731176868511453050343073417549065059640110721147798873454057650989313806041088.00000000
0.76500000, 0.00500000, 708740691073564588419932459237157847278641450860379308819450294269011369116558138005884844794871465491842957180380861431808.00000000
0.77500000, 0.00500000, -589732259055705744405168862087271818185625855199872894961128953896921480477883291801531413924821818058361834487419649392640.00000000
0.78500000, 0.00500000, 484444970641921067234035609389588927679633043172511566722699511557127685694260115198169784508870632139751640411506059771904.00000000
0.79500000, 0.00500000, -378977479189299918506255757745069072190137965523188196910753624933256733673268465279512496253958778617897631285856039862272.00000000
0.80500000, 0.00500000, 209456618089676185220348146573447691465601472028499389409985231784199175775265933562312265822756198703161566383703450451968.00000000
0.81500000, 0.00500000, -214877434607868741774116962736392687302745249391673208441559886508127797873750767453542742499837260780002669739219622035456.00000000
0.82500000, 0.00500000, 140155043164059034695871689110747647383352606889729833728758110091708689672481078709068881255660736168514811534942729666560.00000000
0.83500000, 0.00500000, -41419547322489225466948785260637560666746543181354831775132619993020109111909391424856349852059683239386067716300165087232.00000000
0.84500000, 0.00500000, 29827149356538213669161688967606508920993572611476293103097476701663230473289121627650988570414479064033240372989371875328.00000000
0.85500000, 0.00500000, -1454391359250617028838897153303663004649130744544641626465007624617564681533007485016294766543625757496225807333117132800.00000000
0.86500000, 0.00500000, -26512817023326773604425625433543371871699469276146268021957919385690749224370491630050490274606288989305678215097532547072.00000000
0.87500000, 0.00500000, 41920584039132342911207721484063854973531127007113900665740737083052359352902383364600006840888752616725386519481084280832.00000000
0.88500000, 0.00500000, -50641532584610286196848437844264903925287969295038940436109545493665491097200402349079276665027790313456881569306624655360.00000000
0.89500000, 0.00500000, 53067949166075317512892829774060648360139951461907675443257541777936869472552614755836053704230779708203964959421517266944.00000000
0.90500000, 0.00500000, -50514238729126407628036553500490318066247835614768623282538231431843405259476331253395175660666165040847732634417782325248.00000000
0.91500000, 0.00500000, 46017623213645082516151489335848903075616910288282589320651145909311426764474163778650293178812828602468468373868884525056.00000000
0.92500000, 0.00500000, -40994056776313893935819607420580015949656362872452880488246114383167693057109424205934738400805438108091327169419756437504.00000000
0.93500000, 0.00500000, 34865849775855967856028672375382092391027330457732383270670557141385141171470965428877907371483089790687068731594313302016.00000000
0.94500000, 0.00500000, -28060911247480613185398411249910352216511445166845439780331719159696953932098732087780518620808204386286152890982093291520.00000000
0.95500000, 0.00500000, 21469575869725613490755285895518662766104110930195358418254392034563809777139005854109472273193157490027328644696986615808.00000000
0.96500000, 0.00500000, -15992546581969521130079958555345274517994753904675422140177109680335827809481661939509971313851807086720182230911549440000.00000000
0.97500000, 0.00500000, 6640359774766513092174065871633599083042696908268304400844321998580797017407699632259582176654549496735337416651347853312.00000000
0.98500000, 0.00500000, -7806310006435586084398460158959718910763481454338684543195883170827185641382561497667508291593594497670853170338138685440.00000000
0.99500000, 0.00500000, 4376479896513484351188194324406505823562809316536219624115576532512782065984798145960725574256905441766604272422055051264.00000000
0.00500000, 0.01500000, 4665309328393006109983181004798991293770367999129676873648766748825603176427926321978788909022762273386071344426673766400.00000000
0.01500000, 0.01500000, -2380103747225902935022043884622049814256776223995098774794037827631236168339699936436132127440324730676672358304872136704.00000000
0.02500000, 0.01500000, 540645142225329353623022941640274205369152319040498614320619246406516834239783933643279160910576200708416751629743685632.00000000
0.03500000, 0.01500000, 1078088463553289005725745522082828760844307914791427574212611404586042321584810282944463860001789865970536305554305843200.00000000
0.04500000, 0.01500000, -2736807463859227353918476361003591497986332736343327630738503205337385770405098248711125196801103996464899169278085824512.00000000
0.05500000, 0.01500000, 4428945377650444926499669415198617140150300424251990316730637487009351728797309018373598664204219391430807913388262293504.00000000
0.06500000, 0.01500000, -6090565134952105420703913185603932317171062086140516158483093083363228509526800292920929578326976053295480424799385157632.00000000
0.07500000, 0.01500000, 7747957037095892415654042831444875164289114311512994493669097845006202641462853270353658836588240859559793011056300785664.00000000
0.08500000, 0.01500000, -9369819466141118510405258942730631253909377656204401948857440963115424844279922542643665139229693729082169536868903813120.00000000
0.09500000, 0.01500000, 10902815707094494798550175737366555472358425268795225891475903661751420229862274492009918788820782122770965879065430458368.00000000
0.10500000, 0.01500000, -12335206216084519552085522146037038107523617928016195924747799754730733657578665077980108103530421947324102700501104066560.00000000
0.11500000, 0.01500000, 13690261560108030218358796081757468086330425924015767534149087534564126017484902954386417504203691506697035899560068644864.00000000
0.12500000, 0.01500000, -14974369268793353512819968143458218554862118557934550701140806567188987850903214682287434929626841025030382629033586196480.00000000
0.13500000, 0.01500000, 16335402558625765961399172461573920044181838890799046347693986185142490939570283310907436105220610830467604768094024630272.00000000
0.14500000, 0.01500000, -17807145813958544820422246725504379040832999333113319014153635491036572998867954330771569568403885070370960335129794314240.00000000
0.15500000, 0.01500000, 19052602241446175175602950402300879062946472059159150613842562946606949654449207297186105911981597406376031205178680016896.00000000
0.16500000, 0.01500000, -19844840451824675297740119886350057631544033878337018156598440013267929736813182624537272914217146139461014688774026690560.00000000
0.17500000, 0.01500000, 20297750458269028958528290084236193086011182194608609752701893310202073554971342842153819550757402824565905504478831837184.00000000
0.18500000, 0.01500000, -20600077957220210727890619687311013891475007717300948749393181176425621282192123519337957560030254048424252030133003616256.00000000
0.19500000, 0.01500000, 20939368157903101440196165491068178438828783358026142208339097597222183786214478781056935116666548409972639768383661801472.00000000
0.20500000, 0.01500000, -21543338111039471730933312785704660134301223467808730068957775399219859085885027238047421037274740489198832951265729708032.00000000
0.21500000, 0.01500000, 22511352282743138794551620835354069067164433079637388094698461667177097731779171747233960342330944449624698710804209336320.00000000
0.22500000, 0.01500000, -23567252536084028702764579378807327337331804167772215871049956926370963930060973349125352526668982349723451684914152341504.00000000
0.23500000, 0.01500000, 24134706636935682621678043530912121433889565302735843305868545047654490403685757030639559281765402006197036839199873957888.00000000
0.24500000, 0.01500000, -23695284178036114753016482239306085845743424233264112541530797619521822369827522095714544516288118452094317179509080588288.00000000
0.25500000, 0.01500000, 22086428903564407433254168905991670905397005377203252891112892158577831404962002810289744229859028522916806293513752805376.00000000
0.26500000, 0.01500000, -19564718218291407893435787208424845101590368279232770815105834871104896754147468219172899217644215268257850344459380719616.00000000
0.27500000, 0.01500000, 16583463497392787162424047563388567493681996753416588462116643354451833800834631962571273341418376652335578684086896558080.00000000
0.28500000, 0.01500000, -13479851237608901591209713922051582905461066427746488509479806577937339522065198566951461250388119083118664122682790903808.00000000
0.29500000, 0.01500000, 10377733045563335834772529120089287265218362803820335111788734510677917726888343724291992774475166798602283680004499832832.00000000
0.30500000, 0.01500000, -7263500644026747268783315532742757665216143254395321924219317540461377877490267946828985574778512318865621590603483578368.00000000
0.31500000, 0.01500000, 4068128177709819466823350788505788108951208411723914239922288896373094250976447792062523686388009405746091295479387127808.00000000
0.32500000, 0.01500000, -760854607852609757634332131476540203126841939812163770755372661885946608291290670534391377906688567121203344822052585472.00000000
0.33500000, 0.01500000, -2587295841666488749696645744489869221332238424066155552121061338383895857028713426039470484872491288965569511050774052864.00000000
0.34500000, 0.01500000, 5848709027590551492174408761432632556231170773514767830545494321977795797992755796570071187133639560939986851156128169984.00000000
0.35500000, 0.01500000, -8854161955860977473629606562320299395324555992393949584878353110229419753647789569433224607716347661709262818848781893632.00000000
0.36500000, 0.01500000, 11373490221549717441511710797577905456817681164795912288460264525536971824412509508062394419445898344408107532998607372288.00000000
0.37500000, 0.01500000, -13223386666934543778251200641819904936321507320489242072779113930633309742334045758714518807699928918587548068621951434752.00000000
0.38500000, 0.01500000, 14372060709359085082664313285000344736056836177952311602436708643037675389664865696418885556775932025119043371563149688832.00000000
0.39500000, 0.01500000, -14891452255459633905885268012013435923840700237432371691440829247103472640852790373656421186533195613203738766015996100608.00000000
0.40500000, 0.01500000, 14791986796982225163484535185147004035350860759381822177104749210260804518576158198482888552044431994280216871807676841984.00000000
0.41500000, 0.01500000, -13872931254049834131776782926868513682503102907052815376238628514166077603025111218454550914317714603240416806290365349888.00000000
0.42500000, 0.01500000, 11783290836328370245067737615670184083205014495700165238115475150032797197411904900160292735399564836094230429545860694016.00000000
0.43500000, 0.01500000, -8221546849244109208185821367442209180662084761984913541139153893190685075146870145983947977585323806003660487619503980544.00000000
0.44500000, 0.01500000, 2973922511732640106481761418804296896681086805735445187598729956766582017306063027285603687905427190920458189961970057216.00000000
0.45500000, 0.01500000, 4240840498059944895254014581953351413400536065824770091637674830760405306116322802293775075757692083971404450700522946560.00000000
0.46500000, 0.01500000, -13926726044788727783772351613642464995515539851457487232527513899128986720790259530680675204804226390702491162083632087040.00000000
0.47500000, 0.01500000, 26890452858920859681709077104320918358908312641276224801649617044727505896645384338659784365611351389173374536480729333760.00000000
0.48500000, 0.01500000, -44162043037592775679876972128879541438684987814281081297737704348110779169063240952766461050092498870452309896874703192064.00000000
0.49500000, 0.01500000, 66801264956330068915047274591836806510755043781978336654267573209484085615436196865019322510321970664345208051752878735360.00000000
0.50500000, 0.01500000, -95904023033706274204785576386631195361475859355402690518614765548927606569716140795801335599453163034234781430248093253632.00000000
0.51500000, 0.01500000, 132795673237022859118177594260220923060483207841795437263102659645353533077891829275327165444445470287221936101410981543936.00000000
0.52500000, 0.01500000, -178964526034043556238534413829891692296898747866830404147381808944560425596711984260452033053794537708345373276776710537216.00000000
0.53500000, 0.01500000, 235539809448744896096886591710131488087521625582392851314571830701645764766404775154310375887350765378922039578859625512960.00000000
0.54500000, 0.01500000, -302861141659277874063437884569541420178942358767824764223955716837479251848917563302904187589339850817517662883776814907392.00000000
0.55500000, 0.01500000, 380776475986655007435649153575210696567805796970627545123222943905708651753616058501064152280836276598853398460196441817088.00000000
0.56500000, 0.01500000, -469028208514696035729280725451543920331078916657697020917657329740968389606309361411599411879108793338271380413948650061824.00000000
0.57500000, 0.01500000, 566656163421898336722368541844741225357557164233916666526394689578538204774416689739329622133696946478594512319560267333632.00000000
0.58500000, 0.01500000, -671371730098487369028928898768214369113293203064568910200708146869948976243196929686235946643103394993535168166776249778176.00000000
0.59500000, 0.01500000, 780747983926074198685415372120758901150784187605846494841883925162838264937283065867233807487178441178797122473714002165760.00000000
0.60500000, 0.01500000, -894010919133216136064264869249170456413232727276452127348123166377532737712352871803305522480146215668090651837822249467904.00000000
0.61500000, 0.01500000, 1010861587101454320042554388533797416777673695156775003902977975944386784222490649391753547707688325939018378339052033146880.00000000
0.62500000, 0.01500000, -1128203387391857852794542829313102645247485445954660611316872366703475605278723072125418835887393791844440673224647321321472.00000000
0.63500000, 0.01500000, 1241035597815910158148367234197332751426631982163509862397184680909954186375290490970360149791491453285041283866984588509184.00000000
0.64500000, 0.01500000, -1346977234706003278282374002268870560182647715823555144161026607974555240209390153722201802051731732544835885012965342052352.00000000
0.65500000, 0.01500000, 1445158153123735408614882077572313857749679981360525711454667382302483376497609874006083777166612667943688532313309481795584.00000000
0.66500000, 0.01500000, -1530070462078934573563509264647345182481743771768307726272398717197320776552181365897131484830887615857752686454679627890688.00000000
0.67500000, 0.01500000, 1591117231939348211207741780339515355748423711127894517734950628950805512880250308839968550944306008873356487300137611165696.00000000
0.68500000, 0.01500000, -1617042387063678526949272327459007385004873228360896933729530985989385393600952077468280323928455484185646201543638105718784.00000000
0.69500000, 0.01500000, 1598037124802213634074545334829477995362563445641788721739152922225062000416200192415315446579134918357473475823229279928320.00000000
0.70500000, 0.01500000, -1529803741592054564372061097327834098310055563629497385301604266235369156671051963854369601972786254712200481451501556858880.00000000
0.71500000, 0.01500000, 1420795850994048065274655361550230474963208834717009855142488016267260776753803955880909993369554079929341610702027523883008.00000000
0.72500000, 0.01500000, -1290183070349705395333387273511424463160646099122067155981196937578603540983764467951117277658278622955282210498995006996480.00000000
0.73500000, 0.01500000, 1153908475121313277867235353860857168168208413877546826006598697444302253160206913206650860943703043610298027049213486956544.00000000
0.74500000, 0.01500000, -1013894980404814251605649469438413834018619526824130314035845604951963303422297904400922303888781381242540881952920127406080.00000000
0.75500000, 0.01500000, 812697899964839364723998369230417744361125368554343772921924352229497393887911557682068229867687751089772798819774083629056.00000000
0.76500000, 0.01500000, -644525929042763946002272598970705107809932957656512008771660414674422779223407606460107165240582821642272026629738160193536.00000000
0.77500000, 0.01500000, 531698752496741716542792494778242005160303509470768436423995348427593490393145043542367403617535805560722689438546539839488.00000000
0.78500000, 0.01500000, -409240681782223260430514928415452699814458800132228709897996526688671908695984692483684634284044071167922355739979398774784.00000000
0.79500000, 0.01500000, 324547961957935590337719601015013009160565909297209865836988287785558715926958733998244852819528755827416765145154165145600.00000000
0.80500000, 0.01500000, -255187930661540650452154469688725769082311240619119452307392402848575787134918717406192867134256855975388520708998149701632.00000000
0.81500000, 0.01500000, 181593012531654320092702333033937724721740329092111648215891654925053595912617333910765823246705143122191896199982106017792.00000000
0.82500000, 0.01500000, -109191419109959135400453527115120048419738141289612422807240594226963988025115103519187754457560187959586384940006591430656.00000000
0.83500000, 0.01500000, 53400172241488038956095698088123639116571593422356560571253916479190510510432540959219083156474369897851124244821974188032.00000000
0.84500000, 0.01500000, -13503989908558960784335895477883281270319323783116296813650700922455145388827480863833342990712550418331771202834807128064.00000000
0.85500000, 0.01500000, -13231590553205808421019843801905069746554890133132260681974982462151315825086865147725508616136248824547982408535022501888.00000000
0.86500000, 0.01500000, 32428308258197800282618576280769255029989197757146422985856439235657716212795971375376917110778157018173518357472334577664.00000000
0.87500000, 0.01500000, -45315800355737481363563182698589718129031615528050309244164749819781929923359591919093074415179394825442447950815885787136.00000000
0.88500000, 0.01500000, 51439038228389614636303815051634645199033672611982576484606463417402233326845787054815529650165032555040885678185692266496.00000000
0.89500000, 0.01500000, -50954653187589284415668428183638856839902945793880681319706344896282140546388487492657507234272217351885804936526703886336.00000000