TITLE = "Linear advection equation"
VARIABLES = "x", "y", "sol"
ZONE STRANDID=1, SOLUTIONTIME=6.05, I=100, J=100, DATAPACKING=POINT
0.00500000, 0.00500000, 149379388089621973342152129699703549498523540497154042401224328283150698895351174359496406223132400053781825447368897158351664726409939120289891541049406285164271661867643784648677444281373536115090426201180905537469548902394621284748164942215984703648181651319280001967593339410710528.00000000
0.01500000, 0.00500000, -115676096449841350060166806269249992008536573973424031486731776284047125450148581593129624585369526993642212749398132196304382694553662622397492578524374062114378291819299636428085511827991341266905154349296471030863432079783899509247100626541857227388431390469490539180901167649521664.00000000
0.02500000, 0.00500000, 80511907545926280821236102386219116835445129344331634080349194125203871034974881912897731972729954690600752636984700785364256621313409492894305213294858528250175097057665892866218452653936168964112630774471082651329390954973016106218932774366261908335251908074124879239236766159339520.00000000
0.03500000, 0.00500000, -68453030449386074520211125343597465638912073485988156277489273973308907208355940253222147423683323115810934296133047331536436749885416645442449760908176537338023637295748836586287750260210396646041596419356825436619851317011966645269366344266905543424419549215531524269147536251420672.00000000
0.04500000, 0.00500000, 48962754389266770073552114426594408373908156459178933601506631074216528723574630732588040559195716261794381949544999327043864617753554362104834209726287246701534237097235057406308992996332147155833934452127279346789666555075487796844887499575374467098685330365990204108066053590876160.00000000
0.05500000, 0.00500000, -35488065834133110371540676637074766807501037094500343215208691205365540426054660445551617044660015331166152333254137117558035245275650132998081362635069710857857727272906474564335584094708647174356354545130138995721850334839961684420671116488407518333407918992043829492596022523723776.00000000
0.06500000, 0.00500000, 27984063800486548552880840743590588426079107696722653238652562259443903616278851765049216510106849013412112813847560662952609854538286414833336678549300677899034004173187121609866438270060688096152208799566313489289321109460699144468331015740644924199532438508957723368730955033346048.00000000
0.07500000, 0.00500000, -21934858602136107587639482650837771838723244745725328112339108030514766392000129819483073839335216935755966164189787803500723448912808967604284581129251251096773972743601646830325467901706257334459656922705909635088145252439747160378898316800261812550134013804400450993428860374089728.00000000
0.08500000, 0.00500000, 18208280486149277407134101954787005354981210731216927228627051568046238395974904688270210015665422039586238795475770816460396475463610378925047124516154938419744345910634064620461407760136323873744926693441488887414198847962538697614777539864281670393443482704412728687838442870013952.00000000
0.09500000, 0.00500000, -16892223484939568873142107235031310160185523189497145449797587609317293347646408814762526469872775380463439557525029006159960793442990977578274480898034071155845131261316997264036945801844875088637698908003096773403179600027004187495326227730287877061379730836688363753841996517605376.00000000
0.10500000, 0.00500000, 17523532084266043145031466314801858347071949417598921717717627450991542344409699329482631576173799561963231763059552361568226016834345116358168481119022108385469588330561354403038919033469119119097603497558399480668199992485231704317428839170518065965413247152389220403167180670107648.00000000
0.11500000, 0.00500000, -21184142188985994871490129983886100759051533263040420013033042091550564426700352472594699453997104158601164873033278943711767923883603119845814587609499319929314937483042847432052136350275640896358451405262177254082790510769755541021645019002618705602688159288589441546136196755750912.00000000
0.12500000, 0.00500000, 26130100153496286037745933164066128873082100715964210756748230428575206103258748977101665823438144659242612618177352162044595980828616995181380907136385827061089211207381722687218608490850980662162632560478473785563417484676724615306323395051989425602201521132495313351713718458646528.00000000
0.13500000, 0.00500000, -32597266108407376990558207259730706797840671945811213275469431418155200293333887328887203112241156400230952441190465526257839699496549007118843880130958338685126300125919664299395626208911779440142307977836270828906885399052416438398872838992376355370029634248127640417011209416474624.00000000
0.14500000, 0.00500000, 40292293333294245039255205121849432472296245215963558198703091479734515089926351817408767054322642623159438072178985094359486057845978844105270031959315053413603393179265876999957665696599691379537061425426887326535651277641334557401296239328117363087047504249740012563831738255540224.00000000
0.15500000, 0.00500000, -48670808671662144875026209268705875521113370265270089377108526798261407410731147756836549950439283688123136906397028759992364346416241353874359498547673103813709635432823305973901454354187711295005513095562273778761611149539230682588383638370115953145786183042254396426818651808595968.00000000
0.16500000, 0.00500000, 57189748664035198194820987395285996006370353528647317349127066164384567478889543121360803518333733524235135397305162766774794564473394867226569858617200991484106252222398737063127152762686133439494265483853579659591192582293929953618940422279417683784050692344838366771849380071735296.00000000
0.17500000, 0.00500000, -65622187368518477855921547767279685418763677694898801229906399612239259160175024474527279617927834741367481356597735401716269876315182255305106493568484062616632690662131628332890541156749370909112029570576834246198448502452224451489006845797326119710053034804259108017363442292752384.00000000
0.18500000, 0.00500000, 73690485014575524440032845785730261699197745435199822484098994424073388598773145298436256467910874511784876455345333011657743909514592842223420994831921038346404807210293680490998906258447949147898673674155756786764371940303628876557759829915646426253368382201991653969127216599007232.00000000
0.19500000, 0.00500000, -80967387115224862724812615976252549870452080053712089664738839736457497417513472987232482917896240930733144641456414494284413637859622884007573756101531726270347025974689822069531523657375064843961140522746840108035861387579002000209571500848070150913256093344181923163326552955944960.00000000
0.20500000, 0.00500000, 87221266226218996889157437673861196569779171842044648903410417375508870166100155025783106294414602434772168719130284057368605138967058278727484911755583128499929507933960997375317797464790740965901713647078054370812039222010802492497462193810326893055760737428299955173886314198073344.00000000
0.21500000, 0.00500000, -92624416601520771537851364529319280795453279139727903587896955965483061314604525009100657116092895580471985390973339241138959337295576083332790694601701339388326666813603205335942383867887551735768418165787653937807073462702114649235552414125708679778594471296024245632774810560888832.00000000
0.22500000, 0.00500000, 95679709013674466667430226948604697778481961540547822974282772688749232870596711499917341016177491040154062700404119656329942683099281013543775861249481160298784506683694415374165285497952811625599451852904804045031386467910877186890590501282834785529529314826088248154018193057251328.00000000
0.23500000, 0.00500000, -96379746395984335217806372452306624773846968058061858822957784644827596685786174139316857333843965153637831706521586256184319452812807228874504428417594524272238491412695476485580543427068131752796513971374029338661499282214365879427881512702202738590427359399341559445765618680201216.00000000
0.24500000, 0.00500000, 98650678840318211710011741186357835218241786528799576588910330943762390397540173825249276244814234660856874145996658095145173550524361056472933387788313311500624450367186793906493233845441742389742821352937340420337522556049686393052213982008898167767164617664559727392336684427247616.00000000
0.25500000, 0.00500000, -103743769466382364393027974970728066935182565434502235317272022199100301107979427716950424971713108281546733232539153369500360601391876247290751882138768325274959761119793253868632875198981784249256871064931989960272860796313259274344450848659254196113679580141480113241047964131000320.00000000
0.26500000, 0.00500000, 107836278138443985032359132731795094571756911149786128876515492402114209717966673837254327033997047537566961670584258327033647390299588894960303001450882584250418340744805946020592845558064850696607485481318837439094764842063692913925433059878578454448063513952982304782586626114060288.00000000
0.27500000, 0.00500000, -108031186261787874950849238408519552701759304467425225098754649796690295657346120666560792615758707803028142825352917712013222282376338511027774363867958620722628722935401883600700118738018523652808898934359819436272444919238899561664278655455698000733771911430085469611466078558355456.00000000
0.28500000, 0.00500000, 105314618151111309574675611240930306268501221714971914985877121793980448470028475677397247896062816631975838050094318087024545279457833564273365758524393920106363046701104370913984801200751294732051759858120971381921831573974292522841861850719309965998611383439757398955740679255359488.00000000
0.29500000, 0.00500000, -101954387545226307368693689515421231693789292007118606686263509685480338115860830603809568730511961034052692410712279374242532177656103197861077241750124510311838152324456388293180317147933330497761579101737573435284366996975624657556119152897498759802668316250304752253824506919911424.00000000
0.30500000, 0.00500000, 99108479124312478375399241326286323119816043584401732792274939489707386794042503556202831826731385676906732474672892988164683390294615666327377626927851433880258671680508950246426831868975259628571863824374105038564203573502520771355173444973176892323311117061792282372959333683036160.00000000
0.31500000, 0.00500000, -96916226090306825097839962639249805509530076505347329949902443325971012184055667277638862919901878546947719548940792532011195701596409652715954016381591401946849305554586754609738076194819435250627467982054608652995334891278920549961624327773964889668757232355098458921047453964697600.00000000
0.32500000, 0.00500000, 95047144037176266251085256669652344819198844512967036580607654001842688483031006348925141670883747949889060001210903470821741662496415390267702104660799488960684527031795672179486209746195373585740655671924907434403386828952213184944551745756473303749698955946792053189947156399652864.00000000
0.33500000, 0.00500000, -92773422355038045940676295784469459718351990649829568756304784591364028031833345670807413550051753193158782667590635016245857068866374559785963169012729583078686650960657726446850708901297617241632030952256630686046715513215779695956170801066534678208756561166861595182491581544398848.00000000
0.34500000, 0.00500000, 90196758430465429554668885897153393552734000290430183249971140496372387380649109234667697664566139350162133531449032537877394818951994117514260473461213968872314130757264741809044992687227383478537379734196195506152645069808070516974636088363278499114629808252677107446201924636901376.00000000
0.35500000, 0.00500000, -87544456655224356725087339348375868358689592748618951304006650636242428212054120104163383914365475858815292190800650144007795718625324368136390741939703740460684187712183094102489430578079055455241673912464907143211916159289059403080934098696678378463099239028063729228863962032898048.00000000
0.36500000, 0.00500000, 84796242861879801444054595028566290841814730497646840318155279349815814089111615689103330779773652691172697904901556214415640781482223749855081214087732653058820916070009890111214695616360241267651455151725044680940369360743511027686593325288149431057029791253542171908685705292808192.00000000
0.37500000, 0.00500000, -81666429332866020630331370980945066362303365104186561995278957665776632026396379310101863030710993594327382884631605675038349754717189058448900177360490942227723017204307443734096605523483389958388606853644937525553988377151048214555646446646884200960586585923959108808393729096286208.00000000
0.38500000, 0.00500000, 77592397432394959536070251984889474890543137543690321970374192152983513425183668051945463172753082423808458538969104533899779879759328088403264908948151153532157180514315504018561726594234438019076298287561553435085909290465489975734020360834358449579653222142279660062264635143749632.00000000
0.39500000, 0.00500000, -70404763969371622443820286521677193294733531165157780320172633427508695166995755299004144215768081427839868096153463805861480573897941105491053812207430008815458965276963960879510897516981908554291284501136206625506880489558414322939742291576591963124944888323408135229399344493887488.00000000
0.40500000, 0.00500000, 61506978591321581212141154940893355611385175340839510688075647723352760347759010342042251836865356723845849858262107132867545281241610033875542302699418487126041222384260418022594717015139747740632965471199120700476092259868307482607186778504863921731470833810925385869175065864568832.00000000
0.41500000, 0.00500000, -54108038911605002001758423585530665807997759660403452569630159259805593268628660435857165670267683909266796169641478792482109295980881407252052144243493293134056405687056880413899815221987637345723904018624083746775984469364590818486979885127527083406795432832186228877501708797739008.00000000
0.42500000, 0.00500000, 44702443384548568917496696737087739284460475806341267286890179465864970122992636823849443918656561333520955276977477594133048171797464294422877280152810222278768235372133981389608355780757575342116556718846885472462173222908193777262755303140694921953251882425181484081824155436056576.00000000
0.43500000, 0.00500000, -31443742777072772080689636432490766087209358249787738659553999896233394920088517873545861331023110269788117197163804245084169383184760913956630613287344625697319809084006545424396961265887793862821485204469789571714041240478085222967024302111359942264014778299284223641731999972982784.00000000
0.44500000, 0.00500000, 15921181395739050524653584449736273790693381838089122832088953252102402184508233289976326621940154533419850019931583475865107276865152607711987460430040060270930973610831334028899316658395131264958613094392301049861509777873456511376408914991157233961826333295077221111174823548026880.00000000
0.45500000, 0.00500000, 2026183328823344670555960564668347399993241193459765388385358400255726266161468483977738571284747289483147484182161034267425444368361699307935146927350925414431331318584843529496489574139283065859033752699259085072085606070915694263408082358319953682545643532550080429686446241087488.00000000
0.46500000, 0.00500000, -22396627253422592303798841652538156730868464935675927071030769758859149627433844828636161205891363907422327363180417561398117154968313095716499507542669588977368138675748053439635980203743648046145439481894622908892244821511577729425255538135322309903412988964760686209594068551335936.00000000
0.47500000, 0.00500000, 45148098365418197098566555829264295555306221802925944905786778562656276747120704848016933092657332176620732855924409904243926281968907809517018412739641909372940632088134477145791461555105423600811134735068107250113918633057989037932398278064308454571475885741717748641640001661042688.00000000
0.48500000, 0.00500000, -70430758001273412129298761721134654612058069699179514490605538466190375061341871663675483755421338371565307893839895222231861217258802003975735197002460510786479059233382194574806961073824045941762312044622205780213321151043304014130603144832685812546885483163723010569432181084520448.00000000
0.49500000, 0.00500000, 98253060365141221678462168205910859158047577181200009407432691691661678658508690700534005333656455077708453921299013490313186584958045138882775420049796598016297736178962886583468879979674509355439000760003928848242598656298421453031026878287344242692735743984871983497988684145229824.00000000
0.50500000, 0.00500000, -129735922687246192560225123904779617237077657789373116359999511994956492488167911705949321613005911107346127088087981376429925137891906245908161535408821092203710475481338092840453869285562218182227353397112620160621784187718303576640009964402588715604771057423428370198566905575374848.00000000
0.51500000, 0.00500000, 167911563311578965659194121895650889980237844705598141860138054895959706559156583671430613807419455486308861756685820340418921969619391023919356859950528534595463025299142617368970873323286363401769863133110472007604144373771383446409613547333114196642389636525697433641598552484347904.00000000
0.52500000, 0.00500000, -214411055789383960724842421978173882736191969138631295637263511857706578583323061071049355348309807470834801080425263951694376787289472968788233250719994370564910804258210200504102731930752946850131338291096191450973327697103919742588473992481416469541997900787199758061023838028693504.00000000
0.53500000, 0.00500000, 266777913710834540414738647817864012240755690610884377580675699549597640095018723327191541693013258736975174003802472051964918273489841275697059273130618915480413103236485550857673048252969962867410180003007714556444997074686482864670568102280539475079035871808039359590308418764668928.00000000
0.54500000, 0.00500000, -320909412359442694424232597077134332567521069839527336359132420495573632624741104629265263164934971231825697361924557978763239884598859287550256744384028706455854044633194001881611964003839230787666321522020678418609813258037139952041476720420848222214219261490853752627167368348434432.00000000
0.55500000, 0.00500000, 333318812929684269068981922217838630398220368448652947938094142983399955896952136555912071132345508187420709654004783228655653672350513393346142864732435559735547522742400151047601013731080955050798778791798630590077386820163357173367440350396455442753886546015722256333460109772455936.00000000
0.56500000, 0.00500000, -421395794496196859373170323013608150622598775760845505165478483388910904683327196171387721150627346000251293075950622192310292004617643153946727047724358848936193506306104223418216470176230781931832127028109457853921953910512331164359510350097485143774524716847556822444210039640031232.00000000
0.57500000, 0.00500000, 463530600188761035454858033811713345246594485327548419220814701288829340989030993736919610482036017980151055271590046532931579897114561802063224083126139197507140008560045153703073878001789800636434452146591103914352776428508652408810930765795060150989909871271531818704639585922580480.00000000
0.58500000, 0.00500000, -501582366691773713641530544482266177077310999595958790848595149406749944402821973433872205215427003763005613390961454416881299167054648703385065609401252229092310876403674398216872967734410070040084284168738865339917592306964906196229948958488338942411504634829688850646468044833947648.00000000
0.59500000, 0.00500000, 538084044430708220580574970172217228827865735071054226442947611085127452812969737316869332830514472218187159326736867969101103042796649693486930296031138382770033093686699878875089474509337733924346256979243070894016377023025499444653059390729268546504108877923821005545367514820640768.00000000
0.60500000, 0.00500000, -572339863134444759605531693779810941944094521828352919370507133263692610991118541285253108148452125417295274630719877085415335212070507662768073994852199206600577623078871581395720349918374025075447651741183271302310811220889353677114360531530683845481185404306559347369541323316002816.00000000
0.61500000, 0.00500000, 600085926561188695769792453007844899608880479850266325291254927007756912289399598647104580610257584771132071266624625753705625878919537790001884922856871876921836231349611642362675355960322142736337705279308502914062004133196127493586100227128363897079021950878875113735550751106662400.00000000
0.62500000, 0.00500000, -614794651624673226517922696513465269678860694237377336256062951116189632942757726403092877662905226830459437816495049668745481694848934763597400744217354554356082161511133094463051416476615946241633262284935803633907762094114796465445198637365152891196070345105402713333397188576804864.00000000
0.63500000, 0.00500000, 613615168587627350963114828689518710804984516885122808244492181661687490090211742051452527506542754569863194076064072301919742286971520573975683499294899696165285258079508552110799242200211291747525084337633488820228127052412596933986297973322414984119026464389215174543353682430263296.00000000
0.64500000, 0.00500000, -600802864212192095107975514884226023040782926950135078241138845650670716590251605498705488486717472410817828160155325279692542353268829412033154160413836848980002159275323833341632670885074166797018161878998904484249097621572864576907674683117994493010787496417165287509380249461719040.00000000
0.65500000, 0.00500000, 586952198452904641560922394537752444794670617270292916006756600016572736275371245424367353705377443105456423683017476682863603478525511090730068901524381869884673802418322576332531373897943625283732508239496072312245253602301155505073340344243450351546926717315745006586417254506692608.00000000
0.66500000, 0.00500000, -577889937119126238094704071377408222638176335126525053562724010965698581154430878976817163803387965961091907932395464766417452007359854385448453296866199675935878479461548477463816277609922281030334999287715314553957769533278754974103166746440860877121790289832448359168900731422900224.00000000
0.67500000, 0.00500000, 566317572233406205017555586303967449621012472719956437477718581907811201406518571974685194389328464270130578769064281888618113420243320863075381855891746409627735978780776863051051910129576805648147950217861921237631758247214996281503316830614427418665363960324591453676902665634709504.00000000
0.68500000, 0.00500000, -541168455230503833024794614378546299212314441382489820990548015353096526753912411409541762756575167936273551841268590149869905417373440199064542535797074602423046131416465018368657189717514546103523750753968584731928359094835638189738610789038455378221579830649682144279991016797241344.00000000
0.69500000, 0.00500000, 502142971275278052145509323452272942363764733686676894016681207895464065849192236878105823986808339729831479420228790731761482955777028089228254879513659728537022200815009918110180769430467799406026443650452407261176222358255256010949249978408780855342477515799186603898318160438231040.00000000
0.70500000, 0.00500000, -458852359832758110625499280847491403309246084503520360439849005506220211205188227591868026974383694269260123570214287045038879284390746335164739746368500670439635317258635177801712713571269155615658048167477813980008204097441357118526566374456151432642150124799418080622460774664634368.00000000
0.71500000, 0.00500000, 417549863059908723372640565576959445349379648433537818021514826640530580300030396819679184587331004526443002078179543367535774996209061557546968448020305416113488427164896159056721937741939416620916025944162331486427157106177714120779228604184818907512962460361395152224770450645843968.00000000
0.72500000, 0.00500000, -374957031726861301921090280246492892852631511567222111098657272627581260716842561669582095809169963871587830289983685366221355292416085060306552499143063066905481213173923049485964238965167974251054058579862983794515414643607133347227863355819480091386381460968799527662264688406691840.00000000
0.73500000, 0.00500000, 326282999199488633854046014354281200789019595410379789839820688684197709498626835074466051520915242229527108781215656247446424977572989565134254252890764864422083194815861651240630324834936318105280463244764118627931343930787285343172513474389396636855833229976907918630301536333332480.00000000
0.74500000, 0.00500000, -245605583983332173432022979046395558617754556596558646314530681545532123283379450869243444218409835128678643001751592551661891977549467039003095511443682597623532336102341743172779360211629222954310382095055730601409839877851829657355842607287106108962816167415577641231550808380669952.00000000
0.75500000, 0.00500000, 188783976787102595180906345870187048062087665481164026698419401056265453331439733998306650257458972454517744889056637129025323671704340983444414055678242304209865712992616156407787415417633271316099450226186772123581186301188487838527540555584579474144036619764869170079184506782220288.00000000
0.76500000, 0.00500000, -155994494486632451494114715502153894280302686063568201088055480013945340634033099858122097345972444589853463588091724236413260415927085006085294376484408853198226169511194572107597942152904471838412484868285838099495301314416664475301120871579139340504267761068808155862334625147781120.00000000
0.77500000, 0.00500000, 94618240615877814143218794100931250775193946395674825338552616255356833851679722930917128544139159468390515002280283242256240646238446432463646673771444268475203909474880828951645816860803428582748517682043060837674231921357923999728790327668152274503496838125500416072088999375667200.00000000
0.78500000, 0.00500000, -31439745832770516323240136136524684852531015775445895577091667859817743264977442367688879593712465208523063146018295432476685342989391030210757901241692076324601707500845914028108855017494125019134760626026154562746816125908336512432699567657116854208745542803903086978037763713007616.00000000
0.79500000, 0.00500000, -33340872312576400951547419374582619997866524195290390250800310397922694879585938316570095725267384837676502019744894832168204150892096273698128363969988057442546883115622430299930158322397612986821144928215942960438835610912217391185781992903903830188282227480760666082149871730556928.00000000
0.80500000, 0.00500000, 95797986354793052173446376902365625716105536477768653905562420703914010832860953491285831079308922124865890558725597294027715386537195148978583316175719449799592785286880720790740632012001620341776930152857673203855569111738252938444558076820519381568663513778003684745057972080607232.00000000
0.81500000, 0.00500000, -153742876535370560632812305416869313269219566932387824619438438827396784308217465571586902734432321628116610924805771874974250691631901321944758307198635626287568287161584913464375188133591485772969538729126239123957035632463912301975540121746875215938618032711196549963987550795202560.00000000
0.82500000, 0.00500000, 196072193681813725644831481676257565125379243863778668827965441255279180393264308959390296969121626803696392118046044699249963692267862258388266879189960252581414363828395734169328384921780526249152127539124177899487697750469132768190645917359903930870322212565466429240258255562735616.00000000
0.83500000, 0.00500000, -213400584323766459553279201910076161608256875996839800398098030857309417096497377883252016244112117839707003659984482595995512521277317432805643566734147651909242478599495205381418069341454373954399530424703430802525384073093258103205016005188708927776530100852561818989945806542340096.00000000
0.84500000, 0.00500000, 246714866399679852722500584642533419864553751566777936942361785910185446160295764148561323425104086074209206093689441783191628319817916507807300365454760311798522059762574832837402036398858478467542806758693530327818838469063978668555337953399640803626078102627325409313340458675470336.00000000
0.85500000, 0.00500000, -191618000773080827817254844892355891420550965306347552191732682015966456246943350600993234929855194603345527743666377076035493298825521356374571473496170481411082918758458432528487220679967568401686823265655924840051900681780448840442863864684773131777118623703743336738666351008153600.00000000
0.86500000, 0.00500000, 326378542564579675816671302459755169813041055980765848616773380840797834589551819292423504151065954783738359455004780282629028441348513656383654298401498670181034113928211012378921630967703715357698442774849569544614811935011093540143714513406037110724961583284167228526608437628370944.00000000
0.87500000, 0.00500000, -358627374805897516506368032389399083464317881982411822344942453881230076412604111493260392584551326831264915467403944091122180039024358740611019396808675251406255885134563695213715584860520860217179685283618430314021055217812442651474877352590647715894617889416610745665752477550510080.00000000
0.88500000, 0.00500000, 374723906005940260256007655627633143538165935860153435691782646626708144939292549792558686762789195577576102798079001214230802852056463580081450837174387847563719647732713428697884184875952997087957508545526449757776068611880124903141022337824624052105731027957572282660765798198411264.00000000
0.89500000, 0.00500000, -380024832626774414646321777497416728663130256091849238241596356152276168153603810536292622454792313496584643198771052489218211052393798143087119254112225621879254247930336524358414951001384836980929358190363463077070570977104096477520712730405684058740091984652677523673433918662508544.00000000
0.90500000, 0.00500000, 377999315315328409942507902219768337678254687610208894336244814808806309702404953313905289858008527823912025141475977342356272157454809159378725878831244309296937372317410730010009298538301932384135858862114255004524663434511500776358152924460964112479825519083861434804406884497358848.00000000
0.91500000, 0.00500000, -329696885922210802534882462379245037129198037297667093828471233625904654841856704247428145803217515655248822939771507948045374918010152276914624911747539133878927449432596279882954407344984305451929098209696046200405301714359169854999996042077463064610948806086408210320202964632862720.00000000
0.92500000, 0.00500000, 313588869134696219868012663964401684865286477360813992646407067431258822748056872483727489470492968510550873371694319302829931236702157770667797462633505059909645518475704732143325498929239777262317800312818148041716964910779832980371319396725518590975722851302754051201029218360098816.00000000