TITLE = "Linear advection equation"
VARIABLES = "x", "y", "sol"
ZONE STRANDID=1, SOLUTIONTIME=1.35, I=100, J=100, DATAPACKING=POINT
0.00500000, 0.00500000, 87114678318446665587823852514377264330733109856864831537152.00000000
0.01500000, 0.00500000, -49896253444219214605647823554836645327865658134225202708480.00000000
0.02500000, 0.00500000, 27335542757185614951548678487091393212323450188615273938944.00000000
0.03500000, 0.00500000, -16849114862462753456081266058931937627106083601589649539072.00000000
0.04500000, 0.00500000, 11004113110991982505876189007553434302483311100392820965376.00000000
0.05500000, 0.00500000, -8253653250584963652218684400589992892387255792208674029568.00000000
0.06500000, 0.00500000, 6710545799607462662266906725724324545953291074313545318400.00000000
0.07500000, 0.00500000, -5595850442433874510690159876852475357199632721536371130368.00000000
0.08500000, 0.00500000, 4620345252583099412003350431596719547335564035911025950720.00000000
0.09500000, 0.00500000, -3816508028464006299419181767265137574913746321897567551488.00000000
0.10500000, 0.00500000, 2998190961783107497557073865027069893188833266752760578048.00000000
0.11500000, 0.00500000, -2115192331857583181205632465828975667687478617213746806784.00000000
0.12500000, 0.00500000, 1194006019789570585249996379668506914170632190442545872896.00000000
0.13500000, 0.00500000, -147159614176195163835041593291042266567740881027706388480.00000000
0.14500000, 0.00500000, -1324430395855574331866310148682079168736617139267637870592.00000000
0.15500000, 0.00500000, 3592461416432448520069811003231671464772096392039564836864.00000000
0.16500000, 0.00500000, -6770029252480576487587795295789616765218535263189789048832.00000000
0.17500000, 0.00500000, 10525455860786418841059510773882936221899911467852487458816.00000000
0.18500000, 0.00500000, -14397034479907895217851588927977702202956717356581444911104.00000000
0.19500000, 0.00500000, 19344602729911945611457416576370776630562201555811463856128.00000000
0.20500000, 0.00500000, -26791337918841406234549390914527708357947572392580620484608.00000000
0.21500000, 0.00500000, 35884599669232725066463207653105697162224254019161615761408.00000000
0.22500000, 0.00500000, -45024100699130494347657678943642400415215787814801859674112.00000000
0.23500000, 0.00500000, 53552908383753682191535098695110355588577891446844878225408.00000000
0.24500000, 0.00500000, -60710796323679106105617926764018062595390723439353229475840.00000000
0.25500000, 0.00500000, 66021981815975178914458016162811403929032590575158471688192.00000000
0.26500000, 0.00500000, -70092105897068647231199911345429218716608076173365248786432.00000000
0.27500000, 0.00500000, 73917869184373461386030891979534401651154719796362139926528.00000000
0.28500000, 0.00500000, -78569547522250186085282056911480697435573674691743669288960.00000000
0.29500000, 0.00500000, 85978108626642630496975763737892706471146600411204956454912.00000000
0.30500000, 0.00500000, -98843512081263110501739505454850609279693052193440840810496.00000000
0.31500000, 0.00500000, 117557494400403977038633247261499929182060123411529177497600.00000000
0.32500000, 0.00500000, -140320921843517030307307332536339921513187768064483948232704.00000000
0.33500000, 0.00500000, 165570477626484303293950135879149183576191593355815048708096.00000000
0.34500000, 0.00500000, -192697014747957832339293576276736362062140889875265668251648.00000000
0.35500000, 0.00500000, 222929927676529938286488172788727148826840011763080113422336.00000000
0.36500000, 0.00500000, -249187511741534683738397525527194292782611038179485712121856.00000000
0.37500000, 0.00500000, 248872578678940966469418010560989519627131110898887693434880.00000000
0.38500000, 0.00500000, -252514959266553745802588081045034745402935369949827443982336.00000000
0.39500000, 0.00500000, 230732999031639991927583361342019774311833137817277297590272.00000000
0.40500000, 0.00500000, -198688629738497873114411470232624199339108719772935793934336.00000000
0.41500000, 0.00500000, 167291618319328304100264281040469574111650456175921544036352.00000000
0.42500000, 0.00500000, -135806203333129966108390940808435360876661065177882662273024.00000000
0.43500000, 0.00500000, 105683394585450519216067034579420206959531613752509759225856.00000000
0.44500000, 0.00500000, -81821977373455580514620817781009645077125811908631473422336.00000000
0.45500000, 0.00500000, 61089403749813519427013708697025051520899383881449542254592.00000000
0.46500000, 0.00500000, -42881773349060091042990718176525883719105200807184317808640.00000000
0.47500000, 0.00500000, 28703636251303103153898514798001933360679851600402200920064.00000000
0.48500000, 0.00500000, -18112930187093939785965643654685819223956532517866515202048.00000000
0.49500000, 0.00500000, 10689131567097777543329930065960206341640767668917503000576.00000000
0.50500000, 0.00500000, -6017517843075609472270071290914596711017798549812944044032.00000000
0.51500000, 0.00500000, 3380329798940656057357168671679607528064781856813569015808.00000000
0.52500000, 0.00500000, -1889206297186183871873079256160843049306934330252763070464.00000000
0.53500000, 0.00500000, 990407960323162085494896471804116617766857011289902809088.00000000
0.54500000, 0.00500000, -477367127709516384974158466472340381381450350932434878464.00000000
0.55500000, 0.00500000, 194242108215237929210887620584614830378628900553419128832.00000000
0.56500000, 0.00500000, -26710454855706717977835865060776192976384936152697667584.00000000
0.57500000, 0.00500000, -84857413326011441793387604569228706259783949237859909632.00000000
0.58500000, 0.00500000, 168319376335508459645274197500148687734236915928701861888.00000000
0.59500000, 0.00500000, -235049240250257631935594423445082664619316461643807850496.00000000
0.60500000, 0.00500000, 289064387594267680387064955039135337886131661692504899584.00000000
0.61500000, 0.00500000, -333183221619435203408301676200473434688073714300346171392.00000000
0.62500000, 0.00500000, 372074573441514328525906176093042809707151680032038977536.00000000
0.63500000, 0.00500000, -412260792416678469590664441340347646191810988578487402496.00000000
0.64500000, 0.00500000, 477523295310001309578833762525629380437372417146540261376.00000000
0.65500000, 0.00500000, -646192971903796038378504983699689877838185527635794198528.00000000
0.66500000, 0.00500000, 1093495322805770582593250056830877059285366418613383200768.00000000
0.67500000, 0.00500000, -2157118780416537309310525683629844627247014261325771571200.00000000
0.68500000, 0.00500000, 4474368313976848615363995436998117642998739922238813765632.00000000
0.69500000, 0.00500000, -9195167118298383344963209669004066205334024103966139219968.00000000
0.70500000, 0.00500000, 18232145916813093460756647696020139926287713337509675008000.00000000
0.71500000, 0.00500000, -34525846025223093915004350690976224490043494804597378121728.00000000
0.72500000, 0.00500000, 62324019234612211598784053563140059382602609117306107723776.00000000
0.73500000, 0.00500000, -107529816510752571169600064402129693639871584750574116012032.00000000
0.74500000, 0.00500000, 178208817529462345059202637966683641098660226712316713893888.00000000
0.75500000, 0.00500000, -284776294316715188529265834375024641337694914512201569009664.00000000
0.76500000, 0.00500000, 438982979154253953799911243094941777745261855396894496260096.00000000
0.77500000, 0.00500000, -599804726665484616957597012232028588488062617407956501659648.00000000
0.78500000, 0.00500000, 833828052730652543024547482913953768836383046165180335521792.00000000
0.79500000, 0.00500000, -1239324103287743363176124552128281768898997271878510128922624.00000000
0.80500000, 0.00500000, 1662609786508829684307050355511430330051374004121429679800320.00000000
0.81500000, 0.00500000, -2052760093252305512554007999778437889712176213376316513189888.00000000
0.82500000, 0.00500000, 1508040042842465679351672097528290930863509743798807053729792.00000000
0.83500000, 0.00500000, -3087204546294739792086235452579904655624413192064492319539200.00000000
0.84500000, 0.00500000, 3000684310516009037380489763133720605114441963814800087580672.00000000
0.85500000, 0.00500000, -3223897479104094746141827102305010003886343611365908707016704.00000000
0.86500000, 0.00500000, 3943538939478799880140898602001159779635014427652721339269120.00000000
0.87500000, 0.00500000, -4104389776896415790789881484564290304204285654222158442790912.00000000
0.88500000, 0.00500000, 3949740699661244183757124521529602095505098476097147093647360.00000000
0.89500000, 0.00500000, -3582717232604177237260955695811811995610459672388657536303104.00000000
0.90500000, 0.00500000, 3110636602014000801920288915979178387484476712233633880997888.00000000
0.91500000, 0.00500000, -2567963169145033919881819073309979868596587456964155794259968.00000000
0.92500000, 0.00500000, 2007866555893063953653986161990567455962764558094223875768320.00000000
0.93500000, 0.00500000, -1514600609676071026040690479328777180885120337028718914437120.00000000
0.94500000, 0.00500000, 1100181992400379244079065724050027238209191759860918363619328.00000000
0.95500000, 0.00500000, -762253249779033963249017137185126590471409023455982400831488.00000000
0.96500000, 0.00500000, 540071043316153742404533355667221925653207597449660529115136.00000000
0.97500000, 0.00500000, -363752173499090989842036231168660893320203087599479711334400.00000000
0.98500000, 0.00500000, 212557997498191280291893667259521871097679950122864041000960.00000000
0.99500000, 0.00500000, -134153070384382959062688156686724825360848423913173242871808.00000000
0.00500000, 0.01500000, -85615468965197626089000718159941176742397495650603027660800.00000000
0.01500000, 0.01500000, 47395143926303247591977369523955787998818026742644264140800.00000000
0.02500000, 0.01500000, -26960913300839513676004919547985111849103533558298736328704.00000000
0.03500000, 0.01500000, 16092383606046186250157077668069983333939002459288326111232.00000000
0.04500000, 0.01500000, -10948006441592211514004695500082586096921485389404403924992.00000000
0.05500000, 0.01500000, 8293140312600798566761652772896167319865945892011926093824.00000000
0.06500000, 0.01500000, -6748611501541498992103439373978036149771158829703463174144.00000000
0.07500000, 0.01500000, 5371480534119789351855294346687298645740249480355362373632.00000000
0.08500000, 0.01500000, -4268259946162244976088123265653808156929453497211743633408.00000000
0.09500000, 0.01500000, 3364645633478998751162575319986878819594114399300990533632.00000000
0.10500000, 0.01500000, -2470332389481346263211668787217731636217366716865742635008.00000000
0.11500000, 0.01500000, 1605027083604209013850867097893733622343339530755288072192.00000000
0.12500000, 0.01500000, -705670961306664754774227483813446150389127892384394248192.00000000
0.13500000, 0.01500000, -349637162616054483681001670693601482322621867892974551040.00000000
0.14500000, 0.01500000, 1841507673191409513543071789921358490075490343732230750208.00000000
0.15500000, 0.01500000, -3967753959369443823627916642171051564195312514492679585792.00000000
0.16500000, 0.01500000, 6772688923752293594809930135957199306233869700663884120064.00000000
0.17500000, 0.01500000, -9914700652352624084259489872742378392844945173296873209856.00000000
0.18500000, 0.01500000, 13195718398112569619886992289458250547218417364856727404544.00000000
0.19500000, 0.01500000, -17706176328086944745521194706245235072410995467634065014784.00000000
0.20500000, 0.01500000, 23846508655673110340829500772135835193629848704733604216832.00000000
0.21500000, 0.01500000, -30494443572748430716720533872920927573746307938568758099968.00000000
0.22500000, 0.01500000, 37093723357528152049949420046534802422954827678850087911424.00000000
0.23500000, 0.01500000, -43260057496998160797122609798057871931883553244087863738368.00000000
0.24500000, 0.01500000, 48383851543785391246271327877570879932381952674623406473216.00000000
0.25500000, 0.01500000, -52541691849653173923709132398130629084206079909826591195136.00000000
0.26500000, 0.01500000, 56453841041435305327307596669647356409938993160371327467520.00000000
0.27500000, 0.01500000, -61085143846248113598807885924799466795994722577934305984512.00000000
0.28500000, 0.01500000, 67809454215653115013858181292549877170346116202680272551936.00000000
0.29500000, 0.01500000, -78600489223654203668063443844898654333524926421708430114816.00000000
0.30500000, 0.01500000, 95194210556554811318998982677783770190762065613517106446336.00000000
0.31500000, 0.01500000, -116308412421781910197946006177179217450824566755457383792640.00000000
0.32500000, 0.01500000, 140662459941055913248342624349449844880190766302574000734208.00000000
0.33500000, 0.01500000, -168782011840092615907903307676983948425057192065075234471936.00000000
0.34500000, 0.01500000, 197784882900484311929761621971848213001044128396634927136768.00000000
0.35500000, 0.01500000, -222196415911727432689030560442171440732949483985698589507584.00000000
0.36500000, 0.01500000, 235624031274025648844448982009054223138950103271863205494784.00000000
0.37500000, 0.01500000, -235545939715440794769652394727433564525278459642812175482880.00000000
0.38500000, 0.01500000, 223763787561995484314833983284526929324083112183738436419584.00000000
0.39500000, 0.01500000, -199858520582102287950107688445668089772876991312263011893248.00000000
0.40500000, 0.01500000, 169203326318735930373927956350448891243239203478660739760128.00000000
0.41500000, 0.01500000, -138684409982749041724931066133979212032505396018469578735616.00000000
0.42500000, 0.01500000, 110792239480282086101633221237943360294583204822024819048448.00000000
0.43500000, 0.01500000, -87195131669877165070653762837150229816152125213375396315136.00000000
0.44500000, 0.01500000, 65850601427725138986294039763470618464001241320938708926464.00000000
0.45500000, 0.01500000, -46882056960208305472962888145276594170214138407504201121792.00000000
0.46500000, 0.01500000, 31979958052722702707573133298156878681573520780629035188224.00000000
0.47500000, 0.01500000, -20760665049139147156062233237277138738742135423574309076992.00000000
0.48500000, 0.01500000, 12689455248810350446665212196422838914535938759333599248384.00000000
0.49500000, 0.01500000, -7342112362278979584032168707243476021141939189274153844736.00000000
0.50500000, 0.01500000, 4184652684917668570677832572568431656070400097343210782720.00000000
0.51500000, 0.01500000, -2389687088828329925790190177326011109620462867591286751232.00000000
0.52500000, 0.01500000, 1296499935692892129339000697990522059325738957328630153216.00000000
0.53500000, 0.01500000, -631978045687219491715042236329176384723563177983847956480.00000000
0.54500000, 0.01500000, 230021003381805647257008691580726074423782436548045176832.00000000
0.55500000, 0.01500000, 40955646213346763374896586211171884966067619747560685568.00000000
0.56500000, 0.01500000, -251304926104054909811883997331626119879525867123533414400.00000000
0.57500000, 0.01500000, 433202445198032935243071427521306487670923540530026512384.00000000
0.58500000, 0.01500000, -597053713756519509593280665500013742652519425681962041344.00000000
0.59500000, 0.01500000, 741726263842868523621305427440575895580824063990485221376.00000000
0.60500000, 0.01500000, -861668576363419060284853927220121477893901056002622488576.00000000
0.61500000, 0.01500000, 953177826901540819201790530026961158723374719478674751488.00000000
0.62500000, 0.01500000, -1017152915086111220041768573163361784719679760634558283776.00000000
0.63500000, 0.01500000, 1064771957142650424143829904979596835814761681949506404352.00000000
0.64500000, 0.01500000, -1150350906909857104687502388684344409615316363197804445696.00000000
0.65500000, 0.01500000, 1429726424356211698541195350650852081724876977194940760064.00000000
0.66500000, 0.01500000, -2223108668419159407020470312641149765939281100408906317824.00000000
0.67500000, 0.01500000, 4135064215280914590466519594605030473923974350866944622592.00000000
0.68500000, 0.01500000, -8301859952807926205940605028930972700487079864318648385536.00000000
0.69500000, 0.01500000, 16719278185033637354524613389065597885654477210840423464960.00000000
0.70500000, 0.01500000, -32594573768577143896721877806709863547785625101743327019008.00000000
0.71500000, 0.01500000, 60704127277515719027960105629828995706187907558150703677440.00000000
0.72500000, 0.01500000, -107758264153988852705740078231079189889048071969389613678592.00000000
0.73500000, 0.01500000, 182921674866423798214785895880741388218557755887751314538496.00000000
0.74500000, 0.01500000, -298585110027733639647629015860199470879743987385883720417280.00000000
0.75500000, 0.01500000, 470460724626161136962664225849549561502607944219354032242688.00000000
0.76500000, 0.01500000, -715921908432924923760346595648108555501848708247094663577600.00000000
0.77500000, 0.01500000, 943938537115823634587248048846306757876195892886557127868416.00000000
0.78500000, 0.01500000, -1374839098331958773265587277853615989445097232561106038292480.00000000
0.79500000, 0.01500000, 1978979684738193015949651642480035040622676417498747907342336.00000000
0.80500000, 0.01500000, -2494055405847520595263504643887456432787809944977166584250368.00000000
0.81500000, 0.01500000, 3001208194803822567332471102834786640132490701076614910836736.00000000
0.82500000, 0.01500000, -3563580935596679622493215471500322242161578385761275387838464.00000000
0.83500000, 0.01500000, 4107500874036970754346485901207943806499853759728737962688512.00000000
0.84500000, 0.01500000, -4016908787710094466647626058723245442124634236974661019631616.00000000
0.85500000, 0.01500000, 4867446391655489833024028145921391952543684221461889307115520.00000000
0.86500000, 0.01500000, -5326680461970638579531075848744438532010286486213313697939456.00000000
0.87500000, 0.01500000, 5307453662105777807668658989420353198497425613909845486862336.00000000
0.88500000, 0.01500000, -4905374711084724741810694976867795982119761135555997352329216.00000000
0.89500000, 0.01500000, 4398810501355767744137823519629557013809374859266008014651392.00000000
0.90500000, 0.01500000, -3785307629530603312807615635373373525723399051605629391077376.00000000
0.91500000, 0.01500000, 3048664043727404224918904581239128990313988425083755568300032.00000000
0.92500000, 0.01500000, -2287750625835810908811559695858792827037157405956683052613632.00000000
0.93500000, 0.01500000, 1709815169331367971068313639910265162334443981252913084235776.00000000
0.94500000, 0.01500000, -1236166670259289931679278270382760944333861076593463877697536.00000000
0.95500000, 0.01500000, 859385188745285044568863534573255806290349201891214263058432.00000000
0.96500000, 0.01500000, -601183411618779338182485323911409660871779878860121215860736.00000000
0.97500000, 0.01500000, 352979772669631477699333556906006942801920803217839220588544.00000000
0.98500000, 0.01500000, -213560154688341400756801479195004905129645671198451734413312.00000000
0.99500000, 0.01500000, 147786403720103211160933879200218625594272691760300239618048.00000000
0.00500000, 0.02500000, 76435923095628363649392069640493872736160605520630506323968.00000000
0.01500000, 0.02500000, -42167402220437005870288944206062717457866884136394096115712.00000000
0.02500000, 0.02500000, 23719740051731981578639726336416474130689687319331421028352.00000000
0.03500000, 0.02500000, -14758359864850541149284323791261944907105026207137195360256.00000000
0.04500000, 0.02500000, 10313124283562580023202548517423080027794695701050769276928.00000000
0.05500000, 0.02500000, -7999878445286930797389370039632286690488067826039788666880.00000000
0.06500000, 0.02500000, 6309905790828298322439660234337330723913778561567263031296.00000000
0.07500000, 0.02500000, -4877380355170004248111942086031655550316509408498351603712.00000000
0.08500000, 0.02500000, 3789677214411252240349660668854691092246356142616492376064.00000000
0.09500000, 0.02500000, -2859055575216026467087222505384310016999827080953079005184.00000000
0.10500000, 0.02500000, 2050070357114594257716051562215494968180446948498041995264.00000000
0.11500000, 0.02500000, -1266702064248663568863697247430263408893016258866902466560.00000000
0.12500000, 0.02500000, 446243722325469333325419199992027642585187728302289190912.00000000
0.13500000, 0.02500000, 559891752107399689353978363258593579843503806264192794624.00000000
0.14500000, 0.02500000, -1933195177182758611929703733492868078354516614083935993856.00000000
0.15500000, 0.02500000, 3777363605950626535441075324289024229079119724786917310464.00000000
0.16500000, 0.02500000, -6127312644807964925016892164607231064655249966957848428544.00000000
0.17500000, 0.02500000, 8752012312822811379040003209498655445611739666129432346624.00000000
0.18500000, 0.02500000, -11680486680394106759693664163714694463647391935342370095104.00000000
0.19500000, 0.02500000, 15398534505365851971310719157905346057994715577863215513600.00000000
0.20500000, 0.02500000, -19734014753618652858713134260659876524875909541642433986560.00000000
0.21500000, 0.02500000, 24360133981854130547098445785743289346625741829075338526720.00000000
0.22500000, 0.02500000, -29080139103645270306811192082603001267592918458969853263872.00000000
0.23500000, 0.02500000, 33392870159572527664264418314700644509655505568027199406080.00000000
0.24500000, 0.02500000, -37105744417361714730251810839658565317011377780335784755200.00000000
0.25500000, 0.02500000, 40600765686234076450851500815233811106916743491450304462848.00000000
0.26500000, 0.02500000, -44719196248010906510319031866175764025940618229691696807936.00000000
0.27500000, 0.02500000, 50525260267171124725045285189149893499813526169105758945280.00000000
0.28500000, 0.02500000, -59404869604331957118676181562091968944389199666483910672384.00000000
0.29500000, 0.02500000, 72776303512678834196849108019871768311605170485071198552064.00000000
0.30500000, 0.02500000, -91326140874478519853985932399932496951892185342752747159552.00000000
0.31500000, 0.02500000, 113306039643659080314940438462464802956100155898056610414592.00000000
0.32500000, 0.02500000, -138071459598891213916954731499111433473190475005459051839488.00000000
0.33500000, 0.02500000, 164705420553982815883821774759575142791969225768685558300672.00000000
0.34500000, 0.02500000, -187779887565000579307528049920406407316557943756163884515328.00000000
0.35500000, 0.02500000, 203093335788352173663053401010437604529320662648502431514624.00000000
0.36500000, 0.02500000, -208650795594815488022247781128007431941257923437498854277120.00000000
0.37500000, 0.02500000, 203688359911420550556111901517501340929028772424835814916096.00000000
0.38500000, 0.02500000, -189107702270958371334681329327019742186238620748320507691008.00000000
0.39500000, 0.02500000, 165820456402668883930246777069061373100979104942955111120896.00000000
0.40500000, 0.02500000, -137933678179533492425199417015241701396648997564015865495552.00000000
0.41500000, 0.02500000, 111661747039621645080432817968221343411159574792911796043776.00000000
0.42500000, 0.02500000, -89267657768440310836188359264905206017329115409251808837632.00000000
0.43500000, 0.02500000, 68383306542519191717161121837321593806826935117446176047104.00000000
0.44500000, 0.02500000, -49463233718222234082339789138465149846349512881451539890176.00000000
0.45500000, 0.02500000, 34325732923203408274466530023258761570134491398957359431680.00000000
0.46500000, 0.02500000, -22805261396842439942492962583669534141560010384210214780928.00000000
0.47500000, 0.02500000, 14453427940453927493261394050240000872639635220323836624896.00000000
0.48500000, 0.02500000, -8722985438479166902457157083255407926540866826606919811072.00000000
0.49500000, 0.02500000, 5107189239452439265884950320876219887336193221848410882048.00000000
0.50500000, 0.02500000, -2962497943526954508505050484129205640397150334408177221632.00000000
0.51500000, 0.02500000, 1646494055140206542816152265563063294312088062039043342336.00000000
0.52500000, 0.02500000, -800745363628811999329596451859625847227478389244485959680.00000000
0.53500000, 0.02500000, 225293534562647993078836804210815721184376807465880125440.00000000
0.54500000, 0.02500000, 225171042757330587581601569517727610118471434222107099136.00000000
0.55500000, 0.02500000, -628740645078228223725590734325249584214713857351297794048.00000000
0.56500000, 0.02500000, 1018358262537258668473281235239420384007143291640986206208.00000000
0.57500000, 0.02500000, -1398770721151350095289546781474639876134448114128216129536.00000000
0.58500000, 0.02500000, 1757891766886886939208021378156583717386972174375343620096.00000000
0.59500000, 0.02500000, -2074589911784043093173538635243873488781311908560683139072.00000000
0.60500000, 0.02500000, 2325720185812557642132099646251351813595696002178584936448.00000000
0.61500000, 0.02500000, -2493210921143244153587538434992210843563225508792055627776.00000000
0.62500000, 0.02500000, 2572403309383032335661073622632133200281416822197109915648.00000000
0.63500000, 0.02500000, -2590921790221785694994306234225417792859922720289512751104.00000000
0.64500000, 0.02500000, 2661733107832192395890959600569157536805329278517278408704.00000000
0.65500000, 0.02500000, -3066885052102444864052397953848957942780109702291662045184.00000000
0.66500000, 0.02500000, 4363808658080630686565598464362496336635521158493973250048.00000000
0.67500000, 0.02500000, -7614815702833940302371913738442758634502842247633566695424.00000000
0.68500000, 0.02500000, 14769495466673195352367067281160008118343239061220429398016.00000000
0.69500000, 0.02500000, -29122927176653110548727793967027280074593177111603280084992.00000000
0.70500000, 0.02500000, 55819070950408744701374616717677455115825917472868967383040.00000000
0.71500000, 0.02500000, -102321993148649322928521957172628561419720146143107985965056.00000000
0.72500000, 0.02500000, 178890295263880145112116041350912079652087280160589723205632.00000000
0.73500000, 0.02500000, -299306221588015477760869117783809613600971161719446798598144.00000000
0.74500000, 0.02500000, 481784876506726334067925142366582479538992607033937197268992.00000000
0.75500000, 0.02500000, -748575288331897413310906730228043596915263312418504641085440.00000000
0.76500000, 0.02500000, 1122137512860887628789185303544640543594567579646034054217728.00000000
0.77500000, 0.02500000, -1558250891345303194244368922437044735106605281361601845264384.00000000
0.78500000, 0.02500000, 2189602340955488823773588794758486220551626264676750654963712.00000000
0.79500000, 0.02500000, -2801867339577951722953880961883864136129404808922753541341184.00000000
0.80500000, 0.02500000, 3453264635647532327505975410655077663953666398788990200184832.00000000
0.81500000, 0.02500000, -3934857273229169247135325295915061799423086581219358685528064.00000000
0.82500000, 0.02500000, 4428676463305048112234562680574169640937985092529752964595712.00000000
0.83500000, 0.02500000, -5318612960123378624438239007000171057995975089082326340075520.00000000
0.84500000, 0.02500000, 6208414462034552689955288677588844135520299612009223839285248.00000000
0.85500000, 0.02500000, -6786643484431127116388152492434660841723642066054389136621568.00000000
0.86500000, 0.02500000, 6793933830416443183337776340627535204624201280398533494571008.00000000
0.87500000, 0.02500000, -6305508528853705493659303802046867781820815820680064304939008.00000000
0.88500000, 0.02500000, 5726568639071403241196401122834280252355006545608342744596480.00000000
0.89500000, 0.02500000, -5092115580899340036818302400350558227338861348953427518947328.00000000
0.90500000, 0.02500000, 4364004805538624169624340632186730128650248371664539774615552.00000000
0.91500000, 0.02500000, -3468086072575806691382019109231598040364600406910966712762368.00000000
0.92500000, 0.02500000, 2604324379409484590247114844080845966674086544313430327689216.00000000
0.93500000, 0.02500000, -1974668138903479222735349754140629116093172374259703564206080.00000000
0.94500000, 0.02500000, 1401829998254147758798992567445814846927739287157904144072704.00000000
0.95500000, 0.02500000, -942962830482471416890623442192958856012283768835416931696640.00000000
0.96500000, 0.02500000, 590574460051782076115668244871701922696454553307283684589568.00000000
0.97500000, 0.02500000, -362386310597252956133222015051033199519646418353516210814976.00000000
0.98500000, 0.02500000, 237042347651255863326939791490319478737230258925528600805376.00000000
0.99500000, 0.02500000, -136342184925453437055342934057642906281854765722164317388800.00000000
0.00500000, 0.03500000, -64528838214993248687307963863642079822548675037495631544320.00000000
0.01500000, 0.03500000, 34770606302875560442673681694344495432009091052490102669312.00000000
0.02500000, 0.03500000, -19652415186066741542638827082313083419235044635226908131328.00000000
0.03500000, 0.03500000, 12505702898216779966001468178082168286675902097143053156352.00000000
0.04500000, 0.03500000, -9017920603362723691526837998598470488363275355362322022400.00000000
0.05500000, 0.03500000, 6973171377908152612235851596749082315379439846376282783744.00000000
0.06500000, 0.03500000, -5405378737935617925475972324829419919419604360688260087808.00000000
0.07500000, 0.03500000, 4196419484920926102071798731182242877253081570740541587456.00000000
0.08500000, 0.03500000, -3241779159224996737905113251423118853476190859085224083456.00000000
0.09500000, 0.03500000, 2483924961207343073037716675318936738300731813088626475008.00000000
0.10500000, 0.03500000, -1810272305711131185778966228320815207825997439462182748160.00000000
0.11500000, 0.03500000, 1155146226205302840557380051974374428758394817065634496512.00000000
0.12500000, 0.03500000, -446322716144257742448443521719526570301812712643313532928.00000000
0.13500000, 0.03500000, -430088226185288443014128368361112515955825377858713288704.00000000
0.14500000, 0.03500000, 1577456934681473182285197210289271155241631178050615902208.00000000
0.15500000, 0.03500000, -3070651892708409863565331040338368426835379063672298012672.00000000
0.16500000, 0.03500000, 4903294151069569618670920891972745046137467105964017582080.00000000
0.17500000, 0.03500000, -6972028462726762733906214980071059646264243026747944075264.00000000
0.18500000, 0.03500000, 9285148200001421959621014788802205748509644963229938483200.00000000