TITLE = "Linear advection equation"
VARIABLES = "x", "y", "sol"
ZONE STRANDID=1, SOLUTIONTIME=3.75, I=100, J=100, DATAPACKING=POINT
0.00500000, 0.00500000, -34731015040135920808794817753153173268842243368658898951047583426666433571823327434758487371152488465004926547567515895781440384587805515595243720938652363881717467381160214528.00000000
0.01500000, 0.00500000, 31258336695749997534492021219221477174662317368976529964468743481092064800182800777718466900199612488206327229467576880047957055688614803536572983865526433812276134215147323392.00000000
0.02500000, 0.00500000, -30789621579231374239298059519607461195365439334134574968648550616168559173015348645745078880328333993361412574203903108986145149418845557337912641452878989083466602024141848576.00000000
0.03500000, 0.00500000, 34079172152349730076139357820993996099543136498452967179819291092307705654914332647653839127619051526800344027262556653026818630092482847485986875160622240929309022286694580224.00000000
0.04500000, 0.00500000, -27404947618089841860313197811023813040006639716435533902921874276614129192242603933090274982562857767951967722076617076356644784840798659623498778437647881320041700246293577728.00000000
0.05500000, 0.00500000, 23940782986677791775131691746803402052042400182289401254633040585575318239179140194201789003928528426709330753446016878929247973445545805301398882322676070139667398420355612672.00000000
0.06500000, 0.00500000, -23914834598086698821587393712789583861163305752189676198188966410973191949816211792855539499401782592405665885396227497613780051216401193234740202440397221260094177194788519936.00000000
0.07500000, 0.00500000, 21973445871354036755231731540419286647286937096642504544952855512909970729612752399332386977799755436980299454406349578550011690758672072446668658014965147554394508568104534016.00000000
0.08500000, 0.00500000, -19683632975823856087351455377318487141214271836761864177257149670852881942560841765379335655713517225163213064215868237305095401026478448067984531116394091137785190594977464320.00000000
0.09500000, 0.00500000, 16848579540460026100398564533167065905763959804532053134319705177853581910547891874037827868725143303897882393605274561323232073518953280248277470290866443554665094113623277568.00000000
0.10500000, 0.00500000, -13711493647795785910698700619473590260799642193795779179491074345360913752534133288985934277644637042698198656436825044847479732285099375228156520588424182917261389835301552128.00000000
0.11500000, 0.00500000, 10344920318950498830212050075744332393499086570408810283658419240253252788817852308268990178780918152476857696777411384986921733705395225547587408166275485610283135608561860608.00000000
0.12500000, 0.00500000, -7390842398115928816888537746968518700157357260384096580955878994046736306446672250319124011013727563235977876247843881901536038984093990573828632723901242618582394200639143936.00000000
0.13500000, 0.00500000, 5176657753377431900605451066944607801726181662526247345884200613590968584460168287454939605014841677172490739582139275076830945609806113356520763573525370554703772485507088384.00000000
0.14500000, 0.00500000, -2882505212316963292424671105730385773877854313881063609805357087045079395667494859005509559796495302255347541262229660616310889179760419901974063704329506522924896188956147712.00000000
0.15500000, 0.00500000, 466085698869912714173471196216470263159803914765610111685629186630908028096099016694770639582318926294727497434972033417773557685712287866329478571758313450571122575612575744.00000000
0.16500000, 0.00500000, 1723311482265829169190263454693814297794909177978233320221289667294636855491956052428174397698973093836771150815515059262328298396604215774199900940382742780894191788213927936.00000000
0.17500000, 0.00500000, -3687453895956737914560009855244202772927348502965127851575700526785577711070217067510448274842475083630212621470857739780498213606276223075679926797377646525076904963102212096.00000000
0.18500000, 0.00500000, 5435916296888031699633777838673195070463194314973091079591570096834210745091803072217677506910761119639115341897673154036017596320989871428154976144412906435734575382301507584.00000000
0.19500000, 0.00500000, -7004414695603195901071512201567736172130863379357964060178031362930510568150241936010877054524281706386159632625958997994568387751735234002954479877268737961275933256157495296.00000000
0.20500000, 0.00500000, 8387876297833571315083869913623770720631897671023454013210328271554235802560922714661695616220766808551846008549529295077169216085090158982480121137549139799020925690568507392.00000000
0.21500000, 0.00500000, -9557424519812208080070776241964428509542511665784021491765294966804408450205847770686302766788419493149707194432177420199643933530508511515799707211095329126315385091228958720.00000000
0.22500000, 0.00500000, 10499850014471288623506990091936117977832431327406420326593250067388202108683071573005861580560222949071358395918355434569925379834857781662755722625133368225820458309556109312.00000000
0.23500000, 0.00500000, -11153094534387786322986368820498030372702776452606551158052192504768362845231565992340261342447375610064705108826685783082674921166842292585311207445042160478641183396315791360.00000000
0.24500000, 0.00500000, 11449741331710957271208395403726819707151033785474646046194726802283294910559692937238425580475688593081130461047853802488219261191431643562854556432720457801249177696745816064.00000000
0.25500000, 0.00500000, -11575680622390115297350436989164028885880802015966503992332425885500362969958496383153170272481387052515555853005819933255909106729333834535099297498395552897863797936161292288.00000000
0.26500000, 0.00500000, 11776677065979775387903337733432442685554270812783596155642460267366789641558392747930773507799699012185030422066103339547435420014162581329270832690637406659693420589193625600.00000000
0.27500000, 0.00500000, -11982892163070421520438423106064153957608077229140370830613903790308011255820890366604106505491671821893837024998915388000225471808803727436164528468950517890002035582020091904.00000000
0.28500000, 0.00500000, 12071213104028542328615587223768561290636392477825363295284588716216843114584483820931966959821592013699844530613192277252737301217474022344289663896990658943491773127544799232.00000000
0.29500000, 0.00500000, -12068067542081392670820375242127199155398543200721767664902700684620758454316168022139202983367195272572990839578040534998684500056910103093860916889643419809841606841465831424.00000000
0.30500000, 0.00500000, 11979049922036479948879018890554163359868794392887546245648963420899432366902524244239858098371389926600672516004332570144119573788294728367583762911047166198674747640850153472.00000000
0.31500000, 0.00500000, -11804670643905336638013306935030779735862018172311649779087682479081048785334439749658555622487489078653083168934252719514243973300217245599413351337593260478998407926899539968.00000000
0.32500000, 0.00500000, 11607836587030817639197080298347366602013813216014074618199650740836402991757973914679119824853746333564013300827144428530875529351500296514063453436044444695228981450043817984.00000000
0.33500000, 0.00500000, -11458713272670011607139831801843782216490707345766162743796725283793893842766486539738181692630473895049075196208764380151867092334804344222363212108779130853108986970126680064.00000000
0.34500000, 0.00500000, 11434539881381802226128127872075489905923526010605501825159058092043084746321889850555687974713177594119823542351225867298606008490486819951964358969680411216410354039033692160.00000000
0.35500000, 0.00500000, -11565340128901031058370456146356501407652548842685746869533205892361326057513954259768958911792026787204087963041150146715753913011785434884012831668719083451626598373510873088.00000000
0.36500000, 0.00500000, 11813518193058102045426552413156739850031969579491092596288194312157830378514896731632262832676712984847405141459490659910479684081856845590047982185190012676533167666214469632.00000000
0.37500000, 0.00500000, -12125064985063300521493586828109482772919188937540502734229750655177875834914382400174297394430004061023076539518254380224926089587692989407870352272493181122775294383254142976.00000000
0.38500000, 0.00500000, 11966268599247742058568022291988749091132427166251705813888255309825763835967892573523304325419405234184797846699281144112258247886002143999890886727217029848916131408372563968.00000000
0.39500000, 0.00500000, -11165069952538816759803299313027830556744723882234096150536698669939063705339008240314721762634870571846763921753713645994084363520058045658533784670454122636276513668144824320.00000000
0.40500000, 0.00500000, 11526967588587494244028844710893024470955317364528071724165564331849148791753484374705841278051797364286836159917042790231471851437615882801828947585450999308773963676373745664.00000000
0.41500000, 0.00500000, -13907094300741402461170048580824078359262968089582580085609321497675702686754336447236147960650015983143193823970503019600780023365394566163184209293208075487194788233360703488.00000000
0.42500000, 0.00500000, 16620323648929331963850451939984575181133349864060640619408701118058401583811719474689052825579100349717283245523388598259131977809470243116754702013876815090080740562780028928.00000000
0.43500000, 0.00500000, -18863559467112345306045254236331722476743635684269951087758948161545957520777603159287928794191135463839777184140860221278759678292232843218971000326493979821530818827704598528.00000000
0.44500000, 0.00500000, 21116241594755356862143981636204217005998816887729596534983916834034139876024373624419262146455412359838558514967853455553688081323738233275888988513996831626133455838250008576.00000000
0.45500000, 0.00500000, -23494023473675776415736118320054478732412232543976747674876487385541196348447188920335034620708815779057588236732529723237400837752254686977023917622864981799484474519202037760.00000000
0.46500000, 0.00500000, 25867430613940687431148942967946020077530941847708971942050037441264716776043022684034253722264165074120905424976474375583398103260354057112283588105185653233796020538225721344.00000000
0.47500000, 0.00500000, -28139563739569577518524372927667605216960042057333729862646107403465527831377558118486324537906144411261814641606007901639015324436733954066180107742350998011261125673403547648.00000000
0.48500000, 0.00500000, 30241421371722030133498031431805591786734865394863849409320535084943778643570024289174286436334298145581168627410364044792173344924384544793112524547885287299400397375301222400.00000000
0.49500000, 0.00500000, -32081720371199362701429087700052349282889359724489659521192955513783795888047075708505293039729267672684398786763630866422643629386306812790875276692788503724484909849924075520.00000000
0.50500000, 0.00500000, 33520688031512751682078976482086857099922315594625521343361032244006214796243566044265914048484668532412352901325303199846299838743722253538017481009519763620159987008929792000.00000000
0.51500000, 0.00500000, -34501260444841527551137148025885747048792906420271039107471849735934997727799980815232262553905062366270533924218916421274784003850598930331027300666225072534166390242048737280.00000000
0.52500000, 0.00500000, 35178926363946161518026476305804896121937280058883352106610528995698623842217406881265684018118000921317459470601349761795582346036434067820272961967315283516190299030676307968.00000000
0.53500000, 0.00500000, -35807097002361629944800317743149811370271357540942132760174124241595392923799644544599905564073332896791436761155889640399655715021434976405870562169691549959644394620603858944.00000000
0.54500000, 0.00500000, 36468978175075389656292020204049353623742333424957192527953417143223009497395341263557642347577196106666654964842590596547609250528529377622652614047800635149486442829701971968.00000000
0.55500000, 0.00500000, -37003325726414860015300591858461681106426174897606852235182858890292854987492027013916183900966434242611346218033710653865524125009877279929385403815689663714023346660163190784.00000000
0.56500000, 0.00500000, 37212482943466163552204979628692570329155693352428069663393316509463831638820542403264066050935985765155439820602030739714995599347086498614236068130039942509464885338765787136.00000000
0.57500000, 0.00500000, -37052125574214266952934504303615055082225789375960875676986835952068963085773259758168759104592605788977355999579369150492893082189063012550836082395756770280490305835988156416.00000000
0.58500000, 0.00500000, 36550259235069084292725414980129458924650880286548190171842085294116722219980314262233656220930240713562827430192034916644434815209361719140113148961919817951779363918616461312.00000000
0.59500000, 0.00500000, -35571081646660262670504845428271365385929423412454929290997021891216914884994521741284912263552740308728317024124694181034876332353888710678816533812876118595608286061756678144.00000000
0.60500000, 0.00500000, 33885451845886217527729666183608606491477326681153019860780455889951793005696133537030563831536963548930053357840464393764130954839868689766970241680595339397716215826634244096.00000000
0.61500000, 0.00500000, -31469166394912791161671723627912000409939287400623086570997519284787038320501627048615681009511056240250157692547087977523408534699602004660860119644625600399520209887266078720.00000000
0.62500000, 0.00500000, 28526564120401464030052708288602492308395573107039778990358920072706679564216632881035845850826872160471681409173881956679748239490219010085318253591857007092165453057791885312.00000000
0.63500000, 0.00500000, -25284059158042375744980191284721829120050704873136970145404102223690015197738883678331607357444367077247303809330503187754652113387404183846645897112500672689517515873336688640.00000000
0.64500000, 0.00500000, 21910318395189476269803177672012057654393381631564773778498637295918025679925870735511986497129590539612535358390815304934948985980980860692944223553555174371248262287311503360.00000000
0.65500000, 0.00500000, -18586022108397237510298979171416290116170568970188335494725306513921797410099647420189269641082574114827220376516214939421876487405049805641688246969450574758319597916184903680.00000000
0.66500000, 0.00500000, 15514756306945549162204596436894495236862353619082899554040391942248614612668907548234035255856724956012542224958115109791189327211210579208825281311372858250891227001255886848.00000000
0.67500000, 0.00500000, -12818123753101553240084999336844773920685166943980968388340744947703713024134475373899133066651366715638379340632449130091634068554874870331078197692881581821278856337199988736.00000000
0.68500000, 0.00500000, 10462655312835504636324892478061400928550796692089870735339662321690487301232150199604386362762006518322656838811667470646379509177548149561890088070970128665660361724619915264.00000000
0.69500000, 0.00500000, -8346591925781421114234776195569102228467596085883137418959431030424418280421333067255152053356457157442041646541589851260414029755565004093396096816955864043069899563748818944.00000000
0.70500000, 0.00500000, 6416916626740298485431407674150829662531774056523212782656543647879650861771361888765200797595504907432075394735653317684028464310905433381844270104291886926306751805273407488.00000000
0.71500000, 0.00500000, -4672920528659361388258840236169165775437684488954259063480088835880277248027532806351479654806415838799098665726457803431726747271839765799581687951142699393541659114457792512.00000000
0.72500000, 0.00500000, 3148526795493836662597205200400633086779442765955094082514460646630377281467509030399172964485378427439821486504787424923526432597632074654186656151120220180747411629077954560.00000000
0.73500000, 0.00500000, -1887275589254467382978942846833733877997865426519490939851000771072353310032738676318539620572082047183860146962850128380584919749282132498003260717937862723510494296199397376.00000000
0.74500000, 0.00500000, 911386141355592530914457823048258050429633246849318334275913498704906626208306438676921162541250954064716877873965223411602479176374081827386061341553576600452060029787308032.00000000
0.75500000, 0.00500000, -200673613511197629377183956833722779575239081639914782901811867197998642870465610340156464473657679669592995298435519893782322202602849007922873557045543514818446237917773824.00000000
0.76500000, 0.00500000, -297742582166361367767528740173811463251308658836991539117430827178031857420687811121509044229369391466276924072221051638005719068813967267052718065736087655459302543248588800.00000000
0.77500000, 0.00500000, 649396875703063759961674215805836428123169722317964785234900795969789533684087730860094651863531704035376099232893986679990996481622140744179269372528922611595108827067842560.00000000
0.78500000, 0.00500000, -920005680268346543866726599068026079015161507090306556173602190578279754483969102360182042475887993692704002231486291221037095338955127139687945734338926310952317377715372032.00000000
0.79500000, 0.00500000, 1171905060617921534800886349641438934369026218529684112570664611569262239592368490160224957556324564848070973162755371028576760403924150487879532007032753410308225341337894912.00000000
0.80500000, 0.00500000, -1465592348446231361982732988709209891337945057986465154754866487791624188100138590310069597938322359671554016938544704591768504641076752580770275341460443356640353020371009536.00000000
0.81500000, 0.00500000, 1861900386451170098479162854532258888427065552902660696520969036080913159314207825082927337569045686130666577898965213856317726879952876583352119395036107405967257540669472768.00000000
0.82500000, 0.00500000, -2424503017190710547765282640603247714369823317225731886392092070377560616473073724748471349609517628170551346665315515625913508177788581558087797297403589466695282685686841344.00000000
0.83500000, 0.00500000, 3078986218103121165306788968837626966179199875445025129815838034738217247431489106651320770239193754381002537112648660050211400963803155575850992172106274867438073037453262848.00000000
0.84500000, 0.00500000, -3584488330092687097144056779138324965371403263820530551879075810693863388772844422710793594843144130531578650656913609545031294793248397540598362076863049068191417719354032128.00000000
0.85500000, 0.00500000, 4981153998202985398601657073584939661762263669006859898662762045814689228576250888266166447626762471811131660421299412012994434924370209155552034449687720086414659649840087040.00000000
0.86500000, 0.00500000, -6912219914361958008061221843388559235368723710420924024132554318296440216759059658290181478010385105688373597137553230065618357416062018980812031016322850830402538359534649344.00000000
0.87500000, 0.00500000, 9026767830309730563454735762638146888556798926264303876699022727149112723582522020657011864905100292827258079003935063147370025538951485444432094035082645997647811593977724928.00000000
0.88500000, 0.00500000, -11791750222095129481090184476742917604780530423974830242668471149074807508924264206858287802892972239905357232299645240708947459877907738944052161979578160699284144590203912192.00000000
0.89500000, 0.00500000, 15065202890673332602969899832939908529294762322039834796197051398216156703850463623038399370661193263472679382240982262588443643946052361542025581947438667692272811888303144960.00000000
0.90500000, 0.00500000, -16633107056059191407287344758269183569351063744173596250270576418745087716501127510038603009305192022830750084824065851972230667203351563133326904893593429920132506695262797824.00000000
0.91500000, 0.00500000, 20735494062531689633316027501967797834071323602235726296295762100653514151227775237595916393201046677289181919494147883948502151994681536072696299318185732916705094516879654912.00000000
0.92500000, 0.00500000, -26599299521470946632537988512718016294502812583344847438550408074201826248318317266473925535557106828958340141524988032851966611346456334003664931827760853673047448496432480256.00000000
0.93500000, 0.00500000, 29322796305076742726086140016093526956800083169099628030022919074357089104035569320506882417730203902842876445786143942838793846831295821895453017136047262899072141076476198912.00000000
0.94500000, 0.00500000, -31872437554202347422645323524845353423935861194079831986332800970947118874494725686208226068951034551483181735132151840867390491610933527350799970980933097409050701366596468736.00000000
0.95500000, 0.00500000, 34306531930080870564918549078837719605890946053727140622619648504816983669413949254856220475862699617794140507216271509183794456495150923846704798414363988490641256022347350016.00000000
0.96500000, 0.00500000, -36020790650086334400854629124085987052429665236889042988557897253953218050103128568502922231020693231641001225453681295723321006076117138571796739073698024688919971667055214592.00000000
0.97500000, 0.00500000, 36944266726581830932041160440712604988522340980523217964508756771330250329829859768941925813970377432253971653595834051768348853553073093653181093628530707782662182961535778816.00000000
0.98500000, 0.00500000, -38585947581660104018259276767135558277234914187314299544543025788292063323175478060336555238095047282240426560117985972568590837675666736528302193248224678526885319609765855232.00000000
0.99500000, 0.00500000, 40674860436097960584508765597750360285324369395385226734534849548632380876217377089969100763223130337748681529609573051005938424818384980834213653557982291957929760740125704192.00000000
0.00500000, 0.01500000, 43756663156216062239569758625965450298613678536309765595473496250663396288105483960227569999279293834047491301067090220496821977051849051341874032014935259669125138560608894976.00000000
0.01500000, 0.01500000, -42506624276370808828328268978673738872822791868256818640711907533947537738431536334989262853596634447494366924821556503596264316512342942574572580592161884456567199004637528064.00000000
0.02500000, 0.01500000, 42195674968313378315355739202125904817953491507719100681485650723791941596167213947480888011702452575514495197379888225781738427407159123900624119110829672050387082858599546880.00000000
0.03500000, 0.01500000, -38748801858285539564942912931018030946499143357520974026877328291401728066205764182617542944698356702067639560872806107044350418852452875121651223250259638658722013735362232320.00000000
0.04500000, 0.01500000, 34617549139691384026743981411816708963219690795001542111458806004894703461297032762413573372572909984491559534683018853332250830441632842378718180607242376240280690504377565184.00000000
0.05500000, 0.01500000, -31086565355141095339875194380058602694180773960300045615848880366766954066168089811443969740635629778249562125443486721126898733527301040484907561125537004726286557140895137792.00000000
0.06500000, 0.01500000, 28253129764432477148687930558413631345524996795208166550296187609171862136030356997634103195263231187880405725022264007852212772200074448441266558363258910213900563535565422592.00000000
0.07500000, 0.01500000, -25311558337985618690009487117458811510836364954620966507431523457520127954549312663618734294007719164541469627599640488810109497172399699526663313458870539088227974305424605184.00000000
0.08500000, 0.01500000, 21992116176385149420045901185321547347968441709963849802201302182641204671527488620093600283945645702997613765225011645601599045527910138017868399824848380038671266541331283968.00000000
0.09500000, 0.01500000, -18434566061878804615311572674999881527994683782008617855397228005653260341684613157902077748423607807294565777194726902662097898908254591498921093862983299469003330994801999872.00000000
0.10500000, 0.01500000, 14783471995696617974050613605096604377567204335876170363575305712300820045762494884720472473746830714647243663618714208141177943036059979108670175987265185783966363145885188096.00000000
0.11500000, 0.01500000, -10996464293810191827453649319175213806405995241889815601650110908215611214068019951554329944685121332442556258713668253592114509127986759703106315240253851563254609928158969856.00000000
0.12500000, 0.01500000, 7729931871862024128979616168483447987191704570470763457466412587105863259045573043455638877944828419198434451685842889130388802542964771937073358921683717887755895259457912832.00000000
0.13500000, 0.01500000, -4844253963716347866683432156409081738903912367462157792609844384836501794370333508856710544237912909419990004108851453440336486074416296332619741018133076923044858765219201024.00000000
0.14500000, 0.01500000, 1910773912578581228484411888480189337226592716763855148958785946217198625901121548366221178370514518476200925282704048589330244845995275947840654471858502569082541722805731328.00000000
0.15500000, 0.01500000, 720541047023622586647944098173001374266078843254714424343222010771376219846069611774752601640813664368637338446227733305202031570507486405411702460470651380314412730606944256.00000000
0.16500000, 0.01500000, -3060392761000735618782605757572003686049271150444012212443279833180625340043804295003437228940376713936662415430380979874714002750921827767124051539444226325988458666313908224.00000000
0.17500000, 0.01500000, 5153597998206575033417875033263477037615950563068010166106573032361347726273636796889706470449227290204259164885797704230314872887911840124399911303524708312133518526242619392.00000000
0.18500000, 0.01500000, -7041017187737728126729011748916039969883966495446064526781050646066161324258451528410624898113161430125335525056920261805548154521708056153531232036899652649193075292510355456.00000000
0.19500000, 0.01500000, 8728330031192056974808423855664254770085917776036458354844806779017073970895463532289947656317157498337672572778075897008306701217602076040167967174455122514409426661930958848.00000000
0.20500000, 0.01500000, -10178188767084896673533491229155829625739019003019365940746076862083115553154941798471047201254356675641011608200307859655329086983782661650888721299206742633497358978376531968.00000000
0.21500000, 0.01500000, 11347538084677141310788498934975855479089291514701504905314241295709267171883921628480994876955103795792765507822776981570998172369210675585232718914989992870651104516491968512.00000000
0.22500000, 0.01500000, -12212043256344940345353978490741868658288730733666282615591199096214140759681540460693970361899704475051837507549716906197543026613123349562943015659380770391552786891578277888.00000000
0.23500000, 0.01500000, 12700197695280687136774957047573819127097220835557362568386982707983450387989120866215137740219041924975877021024461972358754571823573105584246891889494851617015381374917410816.00000000
0.24500000, 0.01500000, -12820164713577989335097433966852434308184001770901083176226174429912962504173894550548438060428230379213423705296548370524444901138945915068595657005608660877510987783128219648.00000000
0.25500000, 0.01500000, 12810210311760779304708602873262117646526260144686335857443443193884055856316621888684229618905275192647168616719218456990757459108771341655513472724819364581183388722753699840.00000000
0.26500000, 0.01500000, -12793038114760785698387604611626066637339050975165935663446673184095567022279640543276804252821824708128132616564496387415575830792370733108065097363974041222813078405152505856.00000000
0.27500000, 0.01500000, 12701312348100252951029400317302293312017710224610315762041329526700139740534252805965713594681586692002103061522501701485467909837508045313269181421980575850315127763740131328.00000000
0.28500000, 0.01500000, -12554294069893713699730072185883015581957208597696972797669999934441684516837788060631248923509068883814365216728907402149759862957769368433095269715489473800335573202864439296.00000000
0.29500000, 0.01500000, 12363612416360754153108786296745888646007388243783028101491006233473993457930005283429702495199879516021941110417050106086521645636325198081592676790660094632600421837949632512.00000000
0.30500000, 0.01500000, -12095601227815315055446331061469051654162521488051186880253889795167498635522249915957199027484509396292199838390076504166549984008843680997365866020619637963298685088700563456.00000000
0.31500000, 0.01500000, 11780228548518454372217908913727129035243456071857589737276087611254470836675493828893114117428751731414478018373869794868979752618092627597156887088305088044535317587195592704.00000000
0.32500000, 0.01500000, -11492840695034742418887917649638750557124301242397520075134338875416400802002364489690245774652053660479574979440995222975489215924819413460132161377546290300499129987934191616.00000000
0.33500000, 0.01500000, 11307955288422007609566957107853125173266532874850227048534264491210013995677321658455751603640020014194048100334522617270441226604179575046310374763735624580025981648280485888.00000000
0.34500000, 0.01500000, -11269021099792182188616804150656995246852926779674811790596660295784942030654518232879796663001812426253054761632690535076938554945087961012408356304920572563150014662167232512.00000000
0.35500000, 0.01500000, 11371315578009904582085633888090012145059454213626048445655927654261574653311645865132668274926850142646872796589829156044677970110525640299778402829515898966212474904466423808.00000000
0.36500000, 0.01500000, -11581233925164087614134513707258259612611942803410387673078006515434211646996968515223046190330179251698570819665132003959880787865724722740323407710427650587642347986683428864.00000000
0.37500000, 0.01500000, 11894074446475299358780513907037570447465078554059553400846453848857113954816108443522924189611568512249465471352458526323312786512962832666289115665354681562908259591393378304.00000000
0.38500000, 0.01500000, -11804828542814862874026934100264220831531600824205942691540487382414230923643699291238326291121294966679878092187636858708732620686734275395671349998334173114499935912404713472.00000000
0.39500000, 0.01500000, 11570515876874704940172370291064186409275992457274021564225856379114079762227070205745163398989220811504805511091238837927310138433190620243832605010512861342633361116042887168.00000000
0.40500000, 0.01500000, -12780116305035679954441202030031423026598578024874209614787927889250970815048153569318748239003053579831149286508752274920506036736709778345628165656675272222000735861214281728.00000000
0.41500000, 0.01500000, 15120721095875951060298062926149484262594107592248349422672852820044976082539302356008626018820698024275331474180357362409124889487626878346929976094432982719465108871915241472.00000000