TITLE = "Linear advection equation"
VARIABLES = "x", "y", "sol"
ZONE STRANDID=1, SOLUTIONTIME=3.6, I=100, J=100, DATAPACKING=POINT
0.00500000, 0.00500000, 3184246819712684673053013649640471375519539446021635772481284342730125776114532222313365231675657778874844729205539505064115679627710131204122032490460201416302761345024.00000000
0.01500000, 0.00500000, -2730621928024175847569142528304980783323957255276310743717106302866092372086844130255206110573276902858079957583207725957869484334511060479494186175880401038521090965504.00000000
0.02500000, 0.00500000, 2170362155450421873612214194975037257056616350617564644078482822529075224445126424177832074272367954788489419791212386495925680188280378702180000906592168676991069847552.00000000
0.03500000, 0.00500000, -1649926286650444162508664941314135839112492213101541728800144784011916103028163528306639978486089796546180945046557082002270152988812438625768161746124120591633611751424.00000000
0.04500000, 0.00500000, 1205848161783197751189732942668335191174667534328237411639488273084459908166029562171145169824564151685303574615209898760653848208806118208776412411492564253628549824512.00000000
0.05500000, 0.00500000, -813683007979783780362550849299046275593487936549101542400209202185268413307168138835747589455194952750745746342224762450793844591310073467230640321569211077357939458048.00000000
0.06500000, 0.00500000, 465096301117843020141650122444206145298156094557736653833965291629361336411456218994528427683090211226488114482714841503031791775678518089153147500931630203545266946048.00000000
0.07500000, 0.00500000, -163305229395507936081492673185657576336395086489352434266153929974127283993205419450453657017419009761741504322117302256030562127155108289383193324377649409917164978176.00000000
0.08500000, 0.00500000, -114634958854256853084431096205495584038135949202851876869857652343127647212300240997313040456721415304912124661639332062361895852250800951815726021158996223516185985024.00000000
0.09500000, 0.00500000, 376716156908469691813315333293933605743104663216047259224070188760436848577888220656284070245995598281641747402414760790742905944153112133659761093901769642754533490688.00000000
0.10500000, 0.00500000, -610407982193050439700583293602403065383286747700338031349945599711419113735827163213889481272288890433193556945844453131771038660209609254936956890595328443016749776896.00000000
0.11500000, 0.00500000, 808679880440415990901193531483307228708592531983367507997211527947395992615967036366029005835265315352093343042220490690703185649075696511277203921378798642990208253952.00000000
0.12500000, 0.00500000, -967492324357006707606461243138994034955241175782662281189825240770833879407469302499017946979100510318602042734822844077626408944362342617178566983122842699026984337408.00000000
0.13500000, 0.00500000, 1082766694004872077954058194991211155597261279913895404834481064174020033833830559808134084339835653310641456390876776611815346031500876216024877345657801338239489933312.00000000
0.14500000, 0.00500000, -1151105625804196668240663302269933436166196997335803527818358698715420760453350135379217929421096211363120561158347889556959692950999980614481608078872731142694715260928.00000000
0.15500000, 0.00500000, 1172877202332052145022989463950109091399626457325621245732130073398868924662561017980450941473507957908157446117428277914790606507140843094183632372502234952223575506944.00000000
0.16500000, 0.00500000, -1182393667789752944043118430137144823141727106721773188104655881375580449420285202057777785043036303410256899708923136984441597213756711578414487708869401368980726218752.00000000
0.17500000, 0.00500000, 1208798398418122603784454657143340510216380412710503475520225610974603390470329214460698621990856364178289398862358508329182016204383562138739833618982382708091913240576.00000000
0.18500000, 0.00500000, -1224671565586739716927104145849173020518055740906122512598946771594270580325826196976865674995924560962206360992548252058923513767157279778271107981684933033293433012224.00000000
0.19500000, 0.00500000, 1187241996299607298864044259032826363609511245177312427915333565106284990933147777641953348004053393869126601894717453267342618332102654493160471862839369140848342073344.00000000
0.20500000, 0.00500000, -1143939331687424218173657134129293724145062462447140334458600023308108581832703264881977332648767616016230605442060626785127836805735833756577682683580673012145307254784.00000000
0.21500000, 0.00500000, 1065400939878875526735132315279521185844161715794752751662722717384565605921232072956187911923782067828575935439914858390404377980897377822792168897230142148108716343296.00000000
0.22500000, 0.00500000, -976778159900814437353776103986523332265822018193129464264037588171991301779037334618614259861615215921144389774316839785965665839612576139092242194389335722791423442944.00000000
0.23500000, 0.00500000, 893728343938929039775074775476379198686926856464977409568721705313263754460681988868254275946315497562997171818259233156070581564574044041525397798355010978126269251584.00000000
0.24500000, 0.00500000, -824703068891871095738102968702122747380340664322902167604195740926814190829039523873360957629278913855769015659746672990266752100509360664342119595380575664866185969664.00000000
0.25500000, 0.00500000, 766432139768098951558010143728079524182908631036277292924453872665246196731867353945388403550392897359740598371485981035469633172547767626891652213444202062334652317696.00000000
0.26500000, 0.00500000, -714007421572482002356697378032585097375069234839087885327009360143891626656798289213797017612532706931762093413908982552127316970162484912533458607066835790494995316736.00000000
0.27500000, 0.00500000, 670708169800576948409945568016229306169361177264906814206933366648594338240149062335944798880196877125969021912452036858126591972740370652297051268162317789491198164992.00000000
0.28500000, 0.00500000, -641326351937064095187153086397961418288234541757957893677707482666428196116647569144409573938040627587498043910706255352544261435040553258045584417453086944219547828224.00000000
0.29500000, 0.00500000, 625042259208386463145171313010663616164110229471779572011756443139519354684673179962445642496450357661462442974938391059987572784268366953677457922532410092179679084544.00000000
0.30500000, 0.00500000, -623483757187487979017444281371112442692246572872884581015003212755234874101456667764560215428990142728739322127165640566505925428039661458799161654372322412608570261504.00000000
0.31500000, 0.00500000, 643621478719650938850814933201716040807889679422990926720508533347489364470311768287121383069035525056801679754228215549575317977236538325167735152858596625524786724864.00000000
0.32500000, 0.00500000, -688689590012175509382111149234958486473506392784010371630188031127818442014946859360846417830418927459673470117768340552094390518307610816681547639842926381154971942912.00000000
0.33500000, 0.00500000, 755892414705397007474622532864108232557714034363515019961529729502386662494570271821019534500331283777642900886703957200459852754579782518953533641470425503865518424064.00000000
0.34500000, 0.00500000, -842937004841755627007863425539397070313405812576092659274858411623289360025920958242767237349032072819016685701537726260543775127635462197920611795448397502695509852160.00000000
0.35500000, 0.00500000, 953526096181844262491697793565930611322853962043063111233764770309152676452076930552651535767737146601363720843490580488032044091582932484097662517602774084990281973760.00000000
0.36500000, 0.00500000, -1096115516390046870492440901253740131424423350449549166828941601146972795318452220545486819427543453188585693937766816414936412722048913683700382132801020308078945370112.00000000
0.37500000, 0.00500000, 1274980881020293718738750561838963751014917256404401998614190665466105484531515417109266773851041793586176594597773842840306279517838287477895446259703674596538475085824.00000000
0.38500000, 0.00500000, -1480259659337146795925743296847607292774909547527642160053690883156009528310409611462140049470064146365181121381165230899461424145312966949620545063150623817307613298688.00000000
0.39500000, 0.00500000, 1692106862720404224948040302044934263736748957725852790489594969716677888043486452077394468108042394103586475407808461529976784319274904803299966758929024027237336219648.00000000
0.40500000, 0.00500000, -1897452166812540001014345707632067029713298877150349217937469121976032703248217290743164228629348288256718507558189500174771500948777006336436877271711334811769319194624.00000000
0.41500000, 0.00500000, 2093358023860765956671445771808895810985997782911499217817613222783070674696178682241668076893064324357177689016586559698056003821789679163070375903623360260054349512704.00000000
0.42500000, 0.00500000, -2273244040959503022449659672899527318348422529661035653159388325417783942903548231290365446840886845579871349488521241299387750320145653401217063644079543073187410477056.00000000
0.43500000, 0.00500000, 2424877424897515812874906053339314144823821390175410466079660722250520717111052866082180024244462586697298411302227487527074280480494908100357281899374653156148245430272.00000000
0.44500000, 0.00500000, -2540944784794142518340008781243196982002527000878892527945396774858955261337958615410204259593012918777964359787848012781421598632234097754315049515492808222288522510336.00000000
0.45500000, 0.00500000, 2623019330033287211096817056782202945129507132830717251103592899131532898859219489272350103931110458683906527188581626901803035538743517110499072008576692236858880425984.00000000
0.46500000, 0.00500000, -2681265220430814395347073398860463423424869435268333413026538476156027671665496123904091847204797052211481262338305204493534111615048529327977410402671492685652775927808.00000000
0.47500000, 0.00500000, 2728022875907584212565695580196395315995450469225356506587450593650818035939274422129373273975320111299552553761330458316962429017397882365045146995698281591651501604864.00000000
0.48500000, 0.00500000, -2760624590823256709860594605827521402444732289475664302557264073518185126352183410699158339877588685600653833188679314140414346508572719055207170722782523618165679718400.00000000
0.49500000, 0.00500000, 2758770103116844565111421427742584008378981062036965940091144898084226198234196448523106039322605657345278367299968333032211857666065615013811364602730305228379317600256.00000000
0.50500000, 0.00500000, -2707185109713968769831785750513974398721149939364181896693763006116657132030031655799974123639240048681180123736134209840677046527779920097440258483421745975953622827008.00000000
0.51500000, 0.00500000, 2611232447719788853484913979065867903940288232891143122550020576322543940919339147749282899910553523985258438116949713193806812699074966567204782665012577382668840206336.00000000
0.52500000, 0.00500000, -2486228684586397149945706444151084656175425583914083958633356469717258678801296718183679716599364886215100092512719015005795374962296430321967165381178044947322032357376.00000000
0.53500000, 0.00500000, 2340541440606676014657206075079900958990131396071277333570410687302208481175668363330664660533797163771678171003125227068005917266052695313831727356707641053038489108480.00000000
0.54500000, 0.00500000, -2173531963219957172831517580137335915454061596739659902497096297041035272211839837374337930772445793361872572362863022754976902001905123457290980776614981177360145973248.00000000
0.55500000, 0.00500000, 1980657455419740231666206440169651564737194495748763460076302282129005165244756502607709283147257696229728256344698262340260539823987962831458783261799417734825676636160.00000000
0.56500000, 0.00500000, -1757421645851310139841754166035685909534929062325822318391217892809144885466103258944237167837268523981252344013852645326236453510210174625246807610727606964380764209152.00000000
0.57500000, 0.00500000, 1508425626672971287155742436427011277121298631408883396195763021835729406902975636409001612895747660816559550382398304170638317016595081810359072382357837579844237393920.00000000
0.58500000, 0.00500000, -1253351643074323604449670363016833343907687459656151972532239211619156123164598662633575612123864298527292579929889928957960324483004900608844331225726358889728902692864.00000000
0.59500000, 0.00500000, 1016098837302781780877298677020377089564744555940000992441146033772726145479026028923518331673076194683161959609095823579256665918256857170060965257918802086115267313664.00000000
0.60500000, 0.00500000, -807640335025905843134915800839923752152447640036331471175936448189523614044575318001583029377946884630494471004039524970385872498531508247171230506057619080762171064320.00000000
0.61500000, 0.00500000, 623847069889001534988454494580140511198269687089707236508030549872811801130945886872182154889328886582630370597198948660572535259530133448456814542446826495468275499008.00000000
0.62500000, 0.00500000, -457500218100268489618061524706725407170570982457846854050473928673576782559091170449500395278969763528034902468615747218609681126355472939996735881497543296407541121024.00000000
0.63500000, 0.00500000, 308428220167403590896798798708753664918811585490361171637673085037626924044718461856431886754163994226444560646795264028968677043664918686100957869457620300396113166336.00000000
0.64500000, 0.00500000, -181868620028497839421419753313694542411617401000367182528562268478432477868437295304179295074295958973427809452140625822472790010134346273844097251432891681163031085056.00000000
0.65500000, 0.00500000, 82033682989207990874480900348115946755874573914249468761046155524206480963474063126887997730758068684316794224852935732141810309900990267287802272360831006115882860544.00000000
0.66500000, 0.00500000, -8978526797672469543992811852370348443322595915977565000057604028369475661039843507951049248170659580211847751364902696836516264450904413378599102528371241668067721216.00000000
0.67500000, 0.00500000, -40535316742034873597535357162993179005125613502612117725987531655473040788060403419401288010142311501802609694970381430796896756331979685025969467325222499179001020416.00000000
0.68500000, 0.00500000, 71192918668455289359588524762599792891113649305449722524244918519308536327865882902356816214160835311162154249643906011601971098963215595258807376817492339895295803392.00000000
0.69500000, 0.00500000, -88124188207466822106604957284804917671102949867075917956234825472932834475091506871726730762534320512997691348362653593116314972742523753208885680227144779623347257344.00000000
0.70500000, 0.00500000, 96894398724120010329923296165827158790035065646642266771655501470168690881060581149312843547539572205780957466851593173387866752712407952440715387547379999045574459392.00000000
0.71500000, 0.00500000, -104018635865662869292591834552941777375105105167196268054335846349843984164697627049535789033527093296325690979289468304348938928239208484691898060231982818937450528768.00000000
0.72500000, 0.00500000, 117199302321375366674705246392108253571768587021573184542721002641704697641337346597624343519537454119653851991839593674365775386525826067105275528228619003339235917824.00000000
0.73500000, 0.00500000, -144724885873988351032606123736794336530929304742381442492639524356030492059402895652240763430070720025359293753070557833307736804914913870180500062739072036320185417728.00000000
0.74500000, 0.00500000, 139529586558679502441245055027765379297071583081867751983732862040797343904241580419564967816403030012568193530361970047875169339852907692734590022486951740846341357568.00000000
0.75500000, 0.00500000, -270093942282370155493105040835858884605952386877685077474026297513899231473039517130471572552198175161317710419711162229316635808720867299896988696501373136554006937600.00000000
0.76500000, 0.00500000, 376164095859833927574542204167598407435041925492614574180039097592878051145958246798107022933610000827056760885213858838989627324955710625279918306636342000160945995776.00000000
0.77500000, 0.00500000, -518448869517853991835942019403875053191152114723417714527689576825557881984778763022843895898366784313213424951807913057328836931890195436678138943560752792767291195392.00000000
0.78500000, 0.00500000, 710288777422091918446599277869433686880507329601700175201875706388626799867765485904940966285767251374418000231764498774195706082859176417467741803024768558002927042560.00000000
0.79500000, 0.00500000, -957188869107313643700258919782233034856069170963784121233265917595728817143894371350493792262830602319058400379751600362910945114379534702024515420959423760262007619584.00000000
0.80500000, 0.00500000, 1248267901465801312985479950917222604733180106678383601318572061063972402293466754864264301090012135136016994379431888637554534444033634956548741750685738604393022881792.00000000
0.81500000, 0.00500000, -1585008144428375220447452497270117939767997102286434651075854352682049292648449467335417101636524382893547344969057069204610649433360576074873098188874609113454797127680.00000000
0.82500000, 0.00500000, 1968713868306806538141055047826767268072815366995866746623927955852727795843653690480976634681260732950266115747781237520053115823431191073893760447924195127522251243520.00000000
0.83500000, 0.00500000, -2370016902760888410309033132294592879961117521191990143423293105181122787998418783318126333556799910116004086959999754687881873058678519288198855303418069008133038014464.00000000
0.84500000, 0.00500000, 2753193295490111909404451737988035990603390009190479440309216645693323538741831516503185467673591896016550217797635506194475962533160969007078129743699534009837765525504.00000000
0.85500000, 0.00500000, -2968987660480993771806808324845606121845160584685362690410829632490790857604050626944303055304374337088014610741673843325658928432560881342391106162381015367472390340608.00000000
0.86500000, 0.00500000, 3162868052056676007584600862958474293847363807598381122133630888118128821046493044336099504885745345043732388724133785671078030084684869972325921140632685854382165590016.00000000
0.87500000, 0.00500000, -3629567278089442439244635695162854766292749548136363579841393106811953034347120440346528558156632679656499408928463719311600481146737675752980169784204716203506525011968.00000000
0.88500000, 0.00500000, 4101530412949184448236573286507809296232371342500785508157132661017972849639191963674001956671230789998323387837774451740876491074978157612279926828754055379861156921344.00000000
0.89500000, 0.00500000, -4404527151058745852214658609070521779136724192382703006188203938326912881027246244034629353603675548557952326140987254004976683925099720975985575730723553733101332987904.00000000
0.90500000, 0.00500000, 4649714404916365884083474917380024142313344716952280093747754941077772029544476275126899720005300194305140099349010419994932451490084108272203723919193295230378044293120.00000000
0.91500000, 0.00500000, -4649248269328926311458228667797391654566051591687476861395969891565694796996125422360228421761442396299171318638064827408595959646563135722346600442694761383165249454080.00000000
0.92500000, 0.00500000, 4539772278166919064682993610830313793008141200908564322049230879314899394248325878239845342964805129958430648042824255679056274569826505456462225449927382300777986916352.00000000
0.93500000, 0.00500000, -4759639602253971903713234469548179167290835528221152350805021279952067820713114206457560849634259545079724586565665093846676492631059701554072375008675964015949828325376.00000000
0.94500000, 0.00500000, 4812820737530952825825745472889757901498983514207690646876855232499573555119442831174217779037176849547564414186427334090160930448502432489242218210260747741121940029440.00000000
0.95500000, 0.00500000, -4175664184327272071177128923515616172833304229912364548519399172458940701549411098421824677630426489200064633051319193178245008183537720853770554846006958064666203389952.00000000
0.96500000, 0.00500000, 4159949526588957276887224574496906470496717492755472509833554142172352969275257809789986582600029655532077195265223639705203512703049179767637996163654702530301127557120.00000000
0.97500000, 0.00500000, -4397757054321477054327062258127337032915460354168260662108121613297339338649290040609024658436216381796528645399686573968456592501973877445142636691747431794462903238656.00000000
0.98500000, 0.00500000, 3941823490788867541519850739218970592252983465665248026630001414643577895747147456700777202021558088548006589761147093991623974582487745751888824927658746398915373826048.00000000
0.99500000, 0.00500000, -3561846337347129588346086273963446292995647336697384068303273079424940284132355519881513145904079141162273704840742111942115172152863671306672070927609099310210035482624.00000000
0.00500000, 0.01500000, -3165909174357572905534084998020724854048799426638025205883159962679779881339424294216325455270915807955256217034313525716283926584484057506889724113001836971253162835968.00000000
0.01500000, 0.01500000, 2613593264799352813205138621063110148662395469879969936217278440028337506645584996809846288979012648341693132066908905419520670826205372336267378416771113797475236839424.00000000
0.02500000, 0.01500000, -2062854226427395040989978027074203357127170431165282706932035973567704733931160454150700044769199534630815220018588997425836610932797604998627571383171009462565844549632.00000000
0.03500000, 0.01500000, 1596341228966906623532675721200508445717398545687226032271882379517289049315970939551680742560416257358536813147208281404051990889300956611493234578738133839324645425152.00000000
0.04500000, 0.01500000, -1165821920905989775563955048657192376202472047765556736541763665165412381498765564069427841084468181811882672679767827730515278564025851848038613719930901614716115746816.00000000
0.05500000, 0.01500000, 735298555854613367862476904024447602334953088891607982952290934583330535590878118315241680305206622527352513809361257018161984088806292186125930999404564423683029860352.00000000
0.06500000, 0.01500000, -355825613886907881657920153645209229962780130074726149497559909360675006631406383627112328161412502896604261321009632331766514962736349910026796136900004063690075668480.00000000
0.07500000, 0.01500000, 31487105257310335269063757301990553463259804687205283240351959301585323239736925252253706735423381335676027497237451959630497025211455685487471299091287878208891912192.00000000
0.08500000, 0.01500000, 263712482625311540397819765608942967123824168408292775039365553755573554864735062623111997283685619250676716057648473331806911540045658128625188454509074731652393992192.00000000
0.09500000, 0.01500000, -530167737520703974173668057277651916629558078130025352753098190791104296227524169017485800215729189907266737110518610542727432032533347742737977640210642418141056991232.00000000
0.10500000, 0.01500000, 760881133774479603810081564760140074033012554402876599138972039930557265536549685729659462762466950253683277536019770074136353650714915484971934132261287724133432426496.00000000
0.11500000, 0.01500000, -952106358822310304642150038441741790033024046379782463064459635320112523594796159256258874010880391820877381934961386095841072288717599040800806140573602449215811747840.00000000
0.12500000, 0.01500000, 1092910103569405198505213984665606579071888497537078112223484413422068080852992754199602831956710335274254094897640174228215814002551835152712982966828566895240364949504.00000000
0.13500000, 0.01500000, -1180108599572500744207408585163233254246066471084759026720005897048167816673317745656232950537605543035605127554945215186686317153980587728436697590594489547193011142656.00000000
0.14500000, 0.01500000, 1210148510817575016706594843225052269824617853254268346074821965898552062959296400012360070436210000632787545429811631747130706975687627650055344352096478573931175870464.00000000
0.15500000, 0.01500000, -1201026816446805657808457807231455138337723327300066714587110468038532311332770138583173210608743055912434772546534471807473177397385318964647895217100077172864390791168.00000000
0.16500000, 0.01500000, 1213444847710909018588868963930942690174076890238653698559627877382203112922745647760964044959483553679088320196240652940142209469566040475612998427447859613804370329600.00000000
0.17500000, 0.01500000, -1246280243992028109867602991629881655986591934252866963291090526359359495725648041380424339973960678286799620713642565645195167449561606819266162292028706878602755440640.00000000
0.18500000, 0.01500000, 1242736362149900657329556741321300426952891037490149842583527902700280537782365288032308221873458008962238964804834991092524438590528696381752806857172248260936390934528.00000000
0.19500000, 0.01500000, -1196947429362264676450981015880174224551164446074758680352626912242311163899762629791658509509302327836317937094612477924426849344006080967098372657778287785342067015680.00000000
0.20500000, 0.01500000, 1122646525499710561260865691152327460846453276152024451698506083487403554709096293351912388875860413308139283172172285362385612388604458323319928550894567125905781555200.00000000
0.21500000, 0.01500000, -1026311028949694362158845444226095797923174245078449773672793415560185147645211199876606261765801044927084199597970862434129020517034140195307026203897057469169066311680.00000000
0.22500000, 0.01500000, 925838438392152518090141156129414378546634308668450554503353024499325110170777231060145428510245757674076332212347654991509932571142202514049901450387544280246276587520.00000000
0.23500000, 0.01500000, -838616202935495549819665267427449792547260662724496481269947923599453526819309706847369723289136973441455451654056786383907209475912050993095586046879184356159864700928.00000000
0.24500000, 0.01500000, 768944055179481049568526043925924592907770235673468561976711495991008867411384159680752509015352987910214787780645242215371876713699388118486184868515724678157115064320.00000000
0.25500000, 0.01500000, -709880764266972040515000180779541765482693819889044512433669603857447204105711574369353531120925666741106552857231278782791443549533679776719710958832034666659989946368.00000000
0.26500000, 0.01500000, 656468172592201701242059272347502863592529139693937025269063753218546072184666491599019580718653700237491488277609435040756001665168552943942307509307004955065583665152.00000000
0.27500000, 0.01500000, -611196327276223924812349554548519534785033991065472070969941976465069405535954967869436635238303805439414939598626315147381443966683116865426568647479597934706662834176.00000000
0.28500000, 0.01500000, 577456378335373164597362962678772784701477045203409036576217686728279934615656424226309112010250866260010173358117622886364706036297283076743458833789978798871732551680.00000000
0.29500000, 0.01500000, -557904311725779930337885509370524160582828697877369029042777576571723001214583339709680736882561068080338977844145637578216297794661048917297452701630559332073891430400.00000000
0.30500000, 0.01500000, 558159848403294941697052565629835150648316563354460708155016406474617857418936978754864525665191222178349543216978649331689825396369838342806692516584102438742154805248.00000000
0.31500000, 0.01500000, -583415790938961231404163358596856149180626580656865579516724695246081341451629915024973970637054658658262450253779931296711813684699348452664830977602669751114173251584.00000000
0.32500000, 0.01500000, 633774973303419275175992752738967334097698508868331943996114358842155412073890496133779300456957849766822824951150110252372006034563253313874723542700306789363374620672.00000000
0.33500000, 0.01500000, -706732736240630114891455294506258537169997401722824593814836351833340964864080819261556301602116192268162609582253386913697602837548485472205537139314105488658697027584.00000000
0.34500000, 0.01500000, 802807619574390183286980097464714670564320728927851214270752941419971191855475864810307435485998138502964893880206384105267149397178302271657906601758394947693875036160.00000000
0.35500000, 0.01500000, -927829035282259157759487555972384511536750931706659930742752704139931655980792872366007776322314286075951562669853373471657392111237407582902735575989715655510322053120.00000000
0.36500000, 0.01500000, 1087537508548511695731849519017037329288311232724920541428804764583540659305656019538742847669446105565051420510992034591637057692229857641716814259474935947078775341056.00000000
0.37500000, 0.01500000, -1278075582474094795073684323227656158338102476970654059556946147666172830043465870070699654562252833590617393340769332111216797609385113405488163872231945445776266625024.00000000
0.38500000, 0.01500000, 1484291307149502515977304469811334097914095940128625971874201444418020393113078287331756196586974087522452035864882103116603821825441606442381657651492875122054371737600.00000000
0.39500000, 0.01500000, -1691033472139166389507098555047546477689091786112774539307355143211537752992547233406165322544174387906037590952593121624180375899330480832850649059871189379125560213504.00000000
0.40500000, 0.01500000, 1892529346975296728081260751688064271533387207210616636353564206346144647453989806240150497738295569318943063702329168351930703322085777063680520103731888518221535379456.00000000
0.41500000, 0.01500000, -2084790220438226341139952543605467961531602479466957933690498414908529755755127167056044436266218622228288661293004848005330732292899758837765498472629019696443099709440.00000000
0.42500000, 0.01500000, 2256363038729497561531271512488982018863967133709092955318360144887911554963895256082769324082693241771540809795242117761960925891502778848029866463744442875634197200896.00000000
0.43500000, 0.01500000, -2394044499687633826798397902408214963762204242865116954347882256164636514883603367400659275739418299780006026895517238767304247930338647219896747408648421910691820077056.00000000
0.44500000, 0.01500000, 2493060893434843986306388762578764551094870631885104100717583140158415027450799890972683185875593551200467500353044821659125013154711804139331868119861550985398269771776.00000000
0.45500000, 0.01500000, -2562945309691034255902501419893340244745184367048441718084543660714477488731500926010024272816719579046069203586762824364837408816341926426293900408945686543917626949632.00000000
0.46500000, 0.01500000, 2623571698173413170994259518369982744133653524268879169019086984398245078845744900477964046591404355831300715549945782220177977693791468268770147324091635805369745276928.00000000