TITLE = "Linear advection equation"
VARIABLES = "x", "y", "sol"
ZONE STRANDID=1, SOLUTIONTIME=2.05, I=100, J=100, DATAPACKING=POINT
0.00500000, 0.00500000, 380568155010989161245129500853765160244183270100188659004426770116556529568115451848818688.00000000
0.01500000, 0.00500000, -343530896950741049534940418510411440021311003092117846725383061106441978384634174043586560.00000000
0.02500000, 0.00500000, 341444200768625439622752343973909035379108679503160919390048699780367944428656636477833216.00000000
0.03500000, 0.00500000, -389946896172811113201216139242928314565641045021368352211662098393624751667550397935910912.00000000
0.04500000, 0.00500000, 485620777032912333701353689033511182063354042817108201390884514160260922069926197581578240.00000000
0.05500000, 0.00500000, -550083879117105202473750668553672541632806486399485371977125809467812053940348519700234240.00000000
0.06500000, 0.00500000, 760851964354564083330303093461064543274952853973075985219340166929610863113795414253371392.00000000
0.07500000, 0.00500000, -1026135335892704179493161272027115468785685090856142885399805703380794784216074502751125504.00000000
0.08500000, 0.00500000, 1365282250650940773792092406878073374609749789953653585315963623841703548638779577045352448.00000000
0.09500000, 0.00500000, -1743112181744904403225107736388934275655581146189020205435163254404965441827169467101085696.00000000
0.10500000, 0.00500000, 1935637791576642033767702281475339360979729290231195423814834673391312248251313032894873600.00000000
0.11500000, 0.00500000, -2715473975977819224614750172162246689341375346380104785091093784022827044184794092330287104.00000000
0.12500000, 0.00500000, 3119454974697582145095718911139681324319949054951985821182757339205535106023743455573835776.00000000
0.13500000, 0.00500000, -4369542030704380520546730527856444910170198032306528972687074655557089540001759317899345920.00000000
0.14500000, 0.00500000, 5692621409719713301553630391858951807272298628032372369316165658714448106139721146598162432.00000000
0.15500000, 0.00500000, -7487960011339224671584826875712317813014317149242020908918527457461988882725390595546677248.00000000
0.16500000, 0.00500000, 10311778701031007485183823450138856909654236840315332742300337193627937831791976255435309056.00000000
0.17500000, 0.00500000, -15784360380182292336804733535288653409178811897977444983069090605181647057257673274981089280.00000000
0.18500000, 0.00500000, 24640479003261949325304322578266102776560731409142149210954692114109943127417313707123802112.00000000
0.19500000, 0.00500000, -37219607564729705313923446812570094364076275841535032802708402840309807245481211172082417664.00000000
0.20500000, 0.00500000, 60554881438391740248663562616598047027667220895741347106445389257999770774315614550146154496.00000000
0.21500000, 0.00500000, -103400080100752377935722870555687778699688428176705448398089362925127063152917073052850716672.00000000
0.22500000, 0.00500000, 165428933147470293483731492773149229015460185501510910384171164726388154554612257066523295744.00000000
0.23500000, 0.00500000, -251304937393779433862624962782828363668371156625783045160062293052026811888556456728955191296.00000000
0.24500000, 0.00500000, 374797885157264088871262803415307785312069854457735527417353597482431792614324249911747411968.00000000
0.25500000, 0.00500000, -552262529888475500261905666612918842411086544017040995029074646344838198842161676634961215488.00000000
0.26500000, 0.00500000, 799592596793337109286440158527260651495647266038548161746018009394685421821390712332871532544.00000000
0.27500000, 0.00500000, -1121792488579567183847638482899086026809623697110653175641754231284595159750816472612965711872.00000000
0.28500000, 0.00500000, 1481344539179454096461770416197460690953401618705849303706529189557972019079643461557044641792.00000000
0.29500000, 0.00500000, -1917799723256023703623861885910363370222766824897086047489595066581023872808646580675543040000.00000000
0.30500000, 0.00500000, 2425202708781459238052489503674706261315239390524267744977518448228348143067233351493157388288.00000000
0.31500000, 0.00500000, -2956216098846147784338071322321924115698456400535269212827556634358015747413498626491539259392.00000000
0.32500000, 0.00500000, 3564217526963831568114922168516882832649700864160178351959841478203567595268341421172177502208.00000000
0.33500000, 0.00500000, -4315250260087064709419363542023133666420710305064456006046628773091818972671528462829802749952.00000000
0.34500000, 0.00500000, 5248117372918183336769199625221477029124232885224404134224501557347738525739489356076998983680.00000000
0.35500000, 0.00500000, -6260519193231663784967796951862518135149900760094693613277140538218889163010991467407077277696.00000000
0.36500000, 0.00500000, 7231417136862435348506995662199645265625671032472241311392469791717783002631446181954719842304.00000000
0.37500000, 0.00500000, -8204230543353961960709979341885105637619545193881394114924828596743555125507155466749692870656.00000000
0.38500000, 0.00500000, 9264367761747848639262730247660019355174152446639846271308122973607556238662942494886872481792.00000000
0.39500000, 0.00500000, -10372697438017835268642511323390695555159795795033345078094185276300325712198777152432553066496.00000000
0.40500000, 0.00500000, 11411396701038938315792902676592800654397586274380636519085436729075356027900476578182264258560.00000000
0.41500000, 0.00500000, -12223675320251399558694053526692378876751060158926438061231495059122737060212247146520245174272.00000000
0.42500000, 0.00500000, 12684103071305894241786094888058093403890195341935274518701059865079008692946244400994165194752.00000000
0.43500000, 0.00500000, -12773363028811836861354541877820144768041520454473640053803916194371449148094209043118078033920.00000000
0.44500000, 0.00500000, 12484995096956454356178034081253311960577187147951106864192299776935022451046225890822248726528.00000000
0.45500000, 0.00500000, -11824107020224074429490660178681495483797288006062399407949194443780863352185202239446727000064.00000000
0.46500000, 0.00500000, 10866910965670794352014633954709659965458672864234997700573622457895470969705012065814781624320.00000000
0.47500000, 0.00500000, -9704708926445733365026737572495432456844384449849127314335343048819195830193934477033354559488.00000000
0.48500000, 0.00500000, 8419015088802695708133499432648883645184037750656530807334534315391927684853791259949472415744.00000000
0.49500000, 0.00500000, -7090564429025028252094245897410750830788993933178535498333168840236266927108541335354719862784.00000000
0.50500000, 0.00500000, 5780462098570103049886633585003301775314709783474288627598331229460118621536849025880133992448.00000000
0.51500000, 0.00500000, -4518055629705894030987648870544876559932788760782286095182464659511270765881114208733906337792.00000000
0.52500000, 0.00500000, 3305009101195202373344499369515991114382984788992628490944058710393568131900211198006195650560.00000000
0.53500000, 0.00500000, -2129324966772908556459656376380875799591002913661828130456474204534812072632056184350678450176.00000000
0.54500000, 0.00500000, 981626930302081003362082414777579268192475274043240726589962911567659540346109579755989762048.00000000
0.55500000, 0.00500000, 137896746058247284113658888907697973222585803726195436757171501446243685886373306929663442944.00000000
0.56500000, 0.00500000, -1217112004322981201088714064760888058620060290344458489779541594652086843579588991108297785344.00000000
0.57500000, 0.00500000, 2228540776769504622201042085159824485166275608400533931267175338563237025432669473131078877184.00000000
0.58500000, 0.00500000, -3135223164824628995756732936265238187463896070488391736589314220294461179109659041663473942528.00000000
0.59500000, 0.00500000, 3906635038310384079492480380111552288706234046613755578603224351156345600677584303755383275520.00000000
0.60500000, 0.00500000, -4523288348894329764083006017849332495767501080686924185106605021123001659648693572733061038080.00000000
0.61500000, 0.00500000, 4961980799124014269803985040316566126100078445865062289088647562241729472067140721667186098176.00000000
0.62500000, 0.00500000, -5185061729209903174172086419011966649629400653016923311748739226048162243857329318079561203712.00000000
0.63500000, 0.00500000, 5165318817859325975052857465713910572285437730706156666940091758958347985085120741868327403520.00000000
0.64500000, 0.00500000, -4923788262780143325032638057266494343204986609357602159408059233843862729262394577844002881536.00000000
0.65500000, 0.00500000, 4517785595638551942533740929936795566966582791697864065493226041561134677730756406739434733568.00000000
0.66500000, 0.00500000, -3997619113604233997072365863570939919929072747137115817698964294846493700667446851605345861632.00000000
0.67500000, 0.00500000, 3402063601918212604591329855062394635511708697194125673073836841846848732048477389084407365632.00000000
0.68500000, 0.00500000, -2778760200128147803833640316105113034459695376036280452029928512340947769242455548881604182016.00000000
0.69500000, 0.00500000, 2179690286174799649618921890096208255034264161213991095197829939792394959173040452993942552576.00000000
0.70500000, 0.00500000, -1641200027580774270588685080257874125676684429033215786699441540270348665420634258735049474048.00000000
0.71500000, 0.00500000, 1179404426737231460941280470859016468318277334133834728150534386154337249262208955347892174848.00000000
0.72500000, 0.00500000, -797370888997450514106443749456460680791699240181805973824728935803018673175385606705863720960.00000000
0.73500000, 0.00500000, 489780958298866923964535230153151393576730574887120920697593458037540141042945980966348259328.00000000
0.74500000, 0.00500000, -248464862979345512449211856273083727306498082122832550773275817567735364031452030236199223296.00000000
0.75500000, 0.00500000, 64970976765671575690822164280852493373544659632898535500626502597116319054604786674920587264.00000000
0.76500000, 0.00500000, 71252504729856657352254448183479026012232786983572265178342861253623721783264749109955788800.00000000
0.77500000, 0.00500000, -101398321570340384411879321043234231709678465317081452946831486313465113011734214883655286784.00000000
0.78500000, 0.00500000, 204052264976215643150457790825426930374478516228504282650588517328478850004300364367787982848.00000000
0.79500000, 0.00500000, -234570203383308919798481518031912398957352200398070166748825757576848958223460308556632293376.00000000
0.80500000, 0.00500000, 274680829297211287694258349999679053868326443165009409560750541512793968551169061337144754176.00000000
0.81500000, 0.00500000, -278295787465087341455467925330152474577109550980462816827952324029396192734658681865737601024.00000000
0.82500000, 0.00500000, 264862413423970066154556208089045033036092448744283414889815940559318154264774266183525335040.00000000
0.83500000, 0.00500000, -238800691264403686499323023700749018649023555250553706381620541343248959935515686048498712576.00000000
0.84500000, 0.00500000, 207189268967453424964827676879032679059691275997828575865494228760882683189055976626668437504.00000000
0.85500000, 0.00500000, -172417790832199900982005614381940147399812821056199255878478011859865702761086272023251910656.00000000
0.86500000, 0.00500000, 132445355089967758052212500404399371258593943790062956953095603364696373091467266207210536960.00000000
0.87500000, 0.00500000, -105385117226714803516502943480120097665206680533645932270082456177108363337881795387499479040.00000000
0.88500000, 0.00500000, 78895151407942561512508292404910518323593746061903401487494993073484298730457326325512273920.00000000
0.89500000, 0.00500000, -59817647546825574861183013244670550640874024309783512103144417381556057873620680818177343488.00000000
0.90500000, 0.00500000, 44553088101385756855976451195134810625313968815780875790869933996594271834673489761043218432.00000000
0.91500000, 0.00500000, -30863233252885393226003292290940825854050922290621343379302905631536119641777553106219827200.00000000
0.92500000, 0.00500000, 20701555253414607175783218953250121403870371307203000042022257611516486348655043017258827776.00000000
0.93500000, 0.00500000, -13528789106452517424367261442228530567488051869217261810512926380413098557526772881064722432.00000000
0.94500000, 0.00500000, 8606299107831940576314738002137034893464705495824015910282619468509853329962081681259102208.00000000
0.95500000, 0.00500000, -5293286821907272065053210935281750349353732070822339186682779803117936990064946561192820736.00000000
0.96500000, 0.00500000, 3141602868523198616689069251545341746586876186074715373070253781000159403009205580307890176.00000000
0.97500000, 0.00500000, -1818363108990974792710606756205420646338852336862674728996880581503959813143072243567296512.00000000
0.98500000, 0.00500000, 1049094315772833668263423975733338570097093438994260666259870107215849863925981534597677056.00000000
0.99500000, 0.00500000, -629023896288437533064218322366546447384031424671216873263938376958031831322112943368175616.00000000
0.00500000, 0.01500000, -371865026680999968117322973858703577625743684349739780206373162591049580370977819079999488.00000000
0.01500000, 0.01500000, 377167768438660704624182081439815881554644970129113227803631664688873598102995130864631808.00000000
0.02500000, 0.01500000, -439237018171090068394110120800901889527336926421368053529104594804607313264495671851876352.00000000
0.03500000, 0.01500000, 549410526610429640803074815749399290177441536715981074483722010487392178696936457032957952.00000000
0.04500000, 0.01500000, -710977488386067657126250763392027840988500943883354756819544467412825935808394607797993472.00000000
0.05500000, 0.01500000, 896791084523047977137345314804822574578907620510136115839673174626798069570507473594351616.00000000
0.06500000, 0.01500000, -1161004182760093337682920593602184572621488387590652267384772677032259546766234011543011328.00000000
0.07500000, 0.01500000, 1532737064391404937630675630951888845818853650240896076287098711886840404635279140977639424.00000000
0.08500000, 0.01500000, -1972498734463069650459547133061048658813074142362890342698533919643202720618122055627309056.00000000
0.09500000, 0.01500000, 2482220831562496703978108170744581316900427611572152694244853891235848564269378374238994432.00000000
0.10500000, 0.01500000, -3066377639317158422177368561532457356070318377888499141243502209631994301631623117645283328.00000000
0.11500000, 0.01500000, 3759287246478005455254421510483358048745716812622350338423561866521331659019871540350025728.00000000
0.12500000, 0.01500000, -4593475586441713262626004809027705075605459191731555176481125873038627315155465087846711296.00000000
0.13500000, 0.01500000, 5625426844292157314378922479433106348698722903479558159847327470586162854714268551076642816.00000000
0.14500000, 0.01500000, -7003123096764852647389249007621002995679257218805838567220910422910174325490467531003002880.00000000
0.15500000, 0.01500000, 8519053687249538046546556528667151092107987767958921621813004920225768704456778776529862656.00000000
0.16500000, 0.01500000, -11225890711319567839553508618651467611205638919583597002461349562145852474671014948617846784.00000000
0.17500000, 0.01500000, 15623920063432857766581974373565825600135768302933333219683774528830258745797634772623687680.00000000
0.18500000, 0.01500000, -22436984130167034753877247895029656389496035859091569911680889301715606202595349345123434496.00000000
0.19500000, 0.01500000, 32511665836035891022443034766283336443154519785147502489029280529491727209286761299432177664.00000000
0.20500000, 0.01500000, -53606922603415232239709949739975444850779967737910954434534942742492797656062721020647178240.00000000
0.21500000, 0.01500000, 89007830725630758462039533910407450968239599843350161397739808696278102151348584794097188864.00000000
0.22500000, 0.01500000, -138212054036900813399259399005290240776559819485241332445744991688599041426707061816470536192.00000000
0.23500000, 0.01500000, 209312763186830630877171155463067642171511544724018553937296568874347608969675943067042971648.00000000
0.24500000, 0.01500000, -311782401436413352621772765756689614602431785782568061247335686459002101094243321008300752896.00000000
0.25500000, 0.01500000, 459855567412831906359644553663617780830628227175298379937037117754771805920544419372597248000.00000000
0.26500000, 0.01500000, -665634133983285419279496666181060554022188528902106759236876457973177303793148560365995425792.00000000
0.27500000, 0.01500000, 929159264106479438829943630807667667282031516869327075408392970979236476650766621343735611392.00000000
0.28500000, 0.01500000, -1233811931821967675143628916579681247429151961857628477861856736543821952116528406900861042688.00000000
0.29500000, 0.01500000, 1586841297711307971117993431644975925598022302702067278869379558053107120938758927286020341760.00000000
0.30500000, 0.01500000, -1975910355481064587290188376121370107105942713583748146716286510346795713765795414404199612416.00000000
0.31500000, 0.01500000, 2423635843474045374359898521516244271633825043849236978218999013242722082570517431603767017472.00000000
0.32500000, 0.01500000, -2964300286296118703987952385736652474349723223455782151706940528156539347950762327904616448000.00000000
0.33500000, 0.01500000, 3652915601483965912989280076475877969912852542609678180638718861775915314637623847261250256896.00000000
0.34500000, 0.01500000, -4465927475127733093742164116632893423069884085944400022315367193709512399925321643320793890816.00000000
0.35500000, 0.01500000, 5265870334081394367709232277325194044693831693241846228039415997137243180660101647215808741376.00000000
0.36500000, 0.01500000, -6044180159541441426749050769163822644052958790300036939832630854079987160129482209828242718720.00000000
0.37500000, 0.01500000, 6963306840325372168933454631781346837722870191160368004854260632287251330859886565918299389952.00000000
0.38500000, 0.01500000, -8036326269061261064749564799640368219983843015635360371116079806954093658751542108410630635520.00000000
0.39500000, 0.01500000, 9072195500082324168412780335508355491204891056079968163904833491622789625465809213520313581568.00000000
0.40500000, 0.01500000, -9892063289487244588445424762060835823858953649852066121127314283863252843452034737227448713216.00000000
0.41500000, 0.01500000, 10429042164227535160661423908452629568970906150955744236279635895658859174561457702181716099072.00000000
0.42500000, 0.01500000, -10699126140728992411343403402375549198573631780635262348954620581029322156378527215692959186944.00000000
0.43500000, 0.01500000, 10701773889924197637895300156982890262669117177483149828598023959931524508070404491126958456832.00000000
0.44500000, 0.01500000, -10403200938404176571163909315762922864230796250075396122588830536394644895227740602192518709248.00000000
0.45500000, 0.01500000, 9815825510807693127149018631499729653392736029868394273410639265024173713624237072441466159104.00000000
0.46500000, 0.01500000, -9001758277334344166430951021040308020332140199017888694101978166796074144631361729867022336000.00000000
0.47500000, 0.01500000, 8034480913513458221282878532037589543660018159871060078338552603742067593582856219436175589376.00000000
0.48500000, 0.01500000, -6986391909275732383308747718745252036937099321231775932137307159432992876596884374608695787520.00000000
0.49500000, 0.01500000, 5914898854284354063711179192756835000968375421373667740035659308139109580621585091798505619456.00000000
0.50500000, 0.01500000, -4849525294861953791524293056832838427320417836124583982578182709331566830347922040362756997120.00000000
0.51500000, 0.01500000, 3793209754292348422760028374443832620310821122334144396141872196290292546212641028409177145344.00000000
0.52500000, 0.01500000, -2733581367492593587039368588950315457994917226775186385965050234251283664959641656824942297088.00000000
0.53500000, 0.01500000, 1660566971916083031384099341924836716857743464909847789959151186530024246771179739240397275136.00000000
0.54500000, 0.01500000, -578320972619009598798633798261035601900377943300149914886347259100566929932717599340663668736.00000000
0.55500000, 0.01500000, -493857480851614621505812170747104259548822259747065875024077737820805497430472860785239392256.00000000
0.56500000, 0.01500000, 1524074340946668724416569792928527663376808234377892059151054625898815183618469954085202165760.00000000
0.57500000, 0.01500000, -2471351408819372000086677499809932504777798736517819713772850587662649898166408668030934450176.00000000
0.58500000, 0.01500000, 3296219323783893168904688677962024152803467724984045247216453338092714947915342991867408023552.00000000
0.59500000, 0.01500000, -3971061092439304135691253044943096947268622397074339328607860296905666807397341521220607148032.00000000
0.60500000, 0.01500000, 4475766431017758651898581282113214360572327422942180732227185425837036052207632380466315657216.00000000
0.61500000, 0.01500000, -4784444043637642384414610393207659774286054798225948229645000108291839343455270387410555371520.00000000
0.62500000, 0.01500000, 4869868837922154133074556865985663012586070433862309059146182476377755914005992503008980631552.00000000
0.63500000, 0.01500000, -4731494113101808931862651736326905556789363927700275741846908296095660924333912477211841003520.00000000
0.64500000, 0.01500000, 4409454349861986307163856067126317403946257778141305766882199563597877655375742265348528799744.00000000
0.65500000, 0.01500000, -3959529390962053974172848791412729028202705732825227931428800772199707771517122939403662000128.00000000
0.66500000, 0.01500000, 3427632281405458806867913760064011402961832360614868518991971234856742297544892282582981410816.00000000
0.67500000, 0.01500000, -2854618388551515323646003191061542086097315917218984797660710839542044756456481444985193889792.00000000
0.68500000, 0.01500000, 2285173648721307713152172638149241440418054698541371478050736329422021035460015516655504326656.00000000
0.69500000, 0.01500000, -1758041755772932619071891318177002595858943359575251798277842938020889291664338638178413969408.00000000
0.70500000, 0.01500000, 1294817165716129712320109093668356387792639409130184000372882883600710076927049645405631414272.00000000
0.71500000, 0.01500000, -902816508929619638835491450389556975514320572662363974280902358295304281509914585775487320064.00000000
0.72500000, 0.01500000, 581644176497246102399927564550575382116761838929192288902625687173461495693981674299216363520.00000000
0.73500000, 0.01500000, -326543020342529403859142479961386618542516766129485728545823565882682786172635006080854786048.00000000
0.74500000, 0.01500000, 131059288149381355448467128000475900440555468964922112928876508474723066306161249205299970048.00000000
0.75500000, 0.01500000, 13614870793544954858540282812355367154843242369297331759265502275351273206093614122639818752.00000000
0.76500000, 0.01500000, -117161040123279372985290412705349030197420840541575236651415330559406655553697765396444086272.00000000
0.77500000, 0.01500000, 186852471405507356767377594838870956763688762009019304442968550596873480085017405803099848704.00000000
0.78500000, 0.01500000, -195667502540951101900099125837581568139306723980718474217989420710153783682488256540021096448.00000000
0.79500000, 0.01500000, 232597865723419681646786322565424903327512014958145415195099016410934122688164880749713948672.00000000
0.80500000, 0.01500000, -245311654312080339277906708801714143828157516889140913004633278017874905733026639977589506048.00000000
0.81500000, 0.01500000, 244251333800232118591288923128421769382697771530746888497098054714139213988401615110871711744.00000000
0.82500000, 0.01500000, -224250982424813088883993783089220094153933825668345444788130354175409268162078185866819272704.00000000
0.83500000, 0.01500000, 197668361829447443620012113394953173786188609085833812551297596396999192761754701067379015680.00000000
0.84500000, 0.01500000, -166020907774704579924553817891604656394292355759573378555567916849154307649558071761369563136.00000000
0.85500000, 0.01500000, 131830762559762712159761234520245756618673960909124210045313399338353216326397225015061774336.00000000
0.86500000, 0.01500000, -101783698502519712194812777447867939298521549749362956119322285455946042753341154198288334848.00000000
0.87500000, 0.01500000, 74955426190992703807031861153307575038404860009129630814207830299960781224056463723709071360.00000000
0.88500000, 0.01500000, -56590903457422768345063698471185724705795486472878125787275164305961588213666920810602823680.00000000
0.89500000, 0.01500000, 45268716629385525351897994200434578929869191043213983582778251178883101605461442422284222464.00000000
0.90500000, 0.01500000, -32108833365774203935876823549489893222270801710533052804554973059991962442530253902597586944.00000000
0.91500000, 0.01500000, 21232269412124228887201221365054745948212613432687954529314121534907378085196241029010817024.00000000
0.92500000, 0.01500000, -13249419281983489689349441170035173280515349785955140584638310163252298262157353333129478144.00000000
0.93500000, 0.01500000, 8623925901282372585523688805010461650638392327981684035652966425232036494883783542793306112.00000000
0.94500000, 0.01500000, -5681106435057979470615016987899453822169472918809735566101939317215986026070754248842280960.00000000
0.95500000, 0.01500000, 3418348977140826832659487797894113471710710816506231906124705884201805772401369089178599424.00000000
0.96500000, 0.01500000, -2005873612372850369796548948894506176130683122589297167602179923818662145162861229241270272.00000000
0.97500000, 0.01500000, 1163480112247802476934667201999009354836561144446301971948412069885321067457963909961482240.00000000
0.98500000, 0.01500000, -691354446793493243589014225741358987461599527458089630146097946651022169888499632768548864.00000000
0.99500000, 0.01500000, 457119875506459783300701986503038610046866187906241358577857587584059609807686582977691648.00000000
0.00500000, 0.02500000, 398192497914492844103053756105284248356421233387063275239051517089396099126233983545769984.00000000
0.01500000, 0.02500000, -478646252976921686689886939820866099850733351920612902206264743880922809642482042281132032.00000000
0.02500000, 0.02500000, 612981211000169301253085223355171087874408581640744885547888897782814497921335250684739584.00000000
0.03500000, 0.02500000, -801060461996481102876925540646897805296066173886970708111554939691722873443922284604555264.00000000
0.04500000, 0.02500000, 1047718474707837434617538949195835629316993184097230759436788606188385819408706576412835840.00000000
0.05500000, 0.02500000, -1344341959649628462219695142129490393296715434291744280669660127172514435897136631303372800.00000000
0.06500000, 0.02500000, 1730561736078669617585769240123768191344171569695171991015072111415664394024458354203557888.00000000
0.07500000, 0.02500000, -2211840441649940601387901964562910511073372586896912535741100955272988149481775435949801472.00000000
0.08500000, 0.02500000, 2797453005543438365516654261569108841548973609645739680837558184626380607110350473174974464.00000000
0.09500000, 0.02500000, -3475292203867307250257535414702174692304041350579826765620498327091131657540261193449472000.00000000
0.10500000, 0.02500000, 4249202962565297423494989204367198732869254161647430542308563364028580308075169091638263808.00000000
0.11500000, 0.02500000, -5115270949724719552026339595744931579337642371152496799484681674985926133606040120017813504.00000000
0.12500000, 0.02500000, 6062233759164785182172858394920401606602352264440704741285659831086086382589105640698806272.00000000
0.13500000, 0.02500000, -7115221325968136741898960950738149663698209156582725002917489965106038382921468447467503616.00000000
0.14500000, 0.02500000, 8404952693232027158656781453616662968224271269095088975072993451495283453028065250828615680.00000000
0.15500000, 0.02500000, -9980332052367076719021122810534036015798863180927414051966329307024674528567649511208386560.00000000
0.16500000, 0.02500000, 12413128799118653601903292518049118311449742019962495579683503706559289873247030016433192960.00000000
0.17500000, 0.02500000, -15803232259569444597801907181714368529999776834843826531489552260571808721166819249218387968.00000000
0.18500000, 0.02500000, 21711706198352723506054594748056469838180381559293466830753141745053584485105978074382467072.00000000
0.19500000, 0.02500000, -31145362976946065448941480994486165925898713859561380822731647012360298445387881751431348224.00000000
0.20500000, 0.02500000, 48629915474849147771225722316352248982416388879100411787474284500796149333803255074234826752.00000000
0.21500000, 0.02500000, -75131008883925468961745963203885242958779321956733568420571813440327803662223056898176843776.00000000
0.22500000, 0.02500000, 115008361456761953899349057906763728503603127138743840246869532835029163132444602567592247296.00000000
0.23500000, 0.02500000, -172714405421520985202811150014176846790477143817479938154463493575488411868273642694852476928.00000000
0.24500000, 0.02500000, 256742576258592088533470082853519401144690984931618634287126859945302617658026598616958763008.00000000
0.25500000, 0.02500000, -379008743879679136388292959229757673797362226108150415755249736115313804025766246618595590144.00000000
0.26500000, 0.02500000, 546899073601740548922107129793034956164694871606277210456361376046522444691610237479287783424.00000000
0.27500000, 0.02500000, -757444987500777582021697710156353384130932729941503638057117091130241964353085677393747640320.00000000
0.28500000, 0.02500000, 1003183547128242184441445458543107146151800685054242362799366343223498977415485348844998230016.00000000
0.29500000, 0.02500000, -1282738386174987323837498881798530296590663693568785115530901449641754749056912523963106590720.00000000
0.30500000, 0.02500000, 1606256838863640228543369108738922541439921200060944193290241291041756840929785113947368587264.00000000
0.31500000, 0.02500000, -1994416156856232423685161104689855667324095645097297950601442297962060523968031935622067257344.00000000
0.32500000, 0.02500000, 2480749184360597576665242081831698770573763060183397524389639895195740632575029233229154484224.00000000
0.33500000, 0.02500000, -3100853871326571973993245316866311045799530667744091196837653053157602680326447376065810661376.00000000