TITLE = "Linear advection equation"
VARIABLES = "x", "y", "sol"
ZONE STRANDID=1, SOLUTIONTIME=3.95, I=100, J=100, DATAPACKING=POINT
0.00500000, 0.00500000, -20736675999907266266290633961011845704080484512543905715199055808413345590225229620679976910237384974964816728973861205117899905077063881030680490957173688251259711259967707057156521984.00000000
0.01500000, 0.00500000, 21262339436816422057735573698878002307001691490701748394664153339803152740917134861106507064954000523788249840787838507612495652293472974065661765703960353134964929494081052286992252928.00000000
0.02500000, 0.00500000, -21483039981997120075422832899273057865367048881079794578540123585823326147494821993346169962376338285664024308783156992187866367615439827979158279160381641934620495779286083113951690752.00000000
0.03500000, 0.00500000, 22551219420552347567217705922396335702832497516195646891779542874666410763804062906994569521823107400712602538960218958371789748996700977866352739650381837049628152963932697264941694976.00000000
0.04500000, 0.00500000, -23077146140501401395624808625398678675836333003359704511475197598602636175670869026372381275808316651416808071818784150307806328029269574720409461826742550353320144216760217418564894720.00000000
0.05500000, 0.00500000, 24268417863090771661058811448642867100737011016199050979412609659774740805608363669449429218190647120755163729024087367215796256694257800465956464939652008479179935964376197035425005568.00000000
0.06500000, 0.00500000, -25753596101378771443064561865764399721608000375697585212167911806940966430858737114835624257523870826337785861470660981261049038180693775691707490409313350691653959884443729691200716800.00000000
0.07500000, 0.00500000, 27819518860949052630636044065077951006450927566625523775595145677240257855352237448619199361800980288707297758106975976555554789701031330180232932262046153359980357749673405989055889408.00000000
0.08500000, 0.00500000, -30450245468225572476407447801837627705498988624286395953296979859431137565852649006741966849926879516751909204387379303381535842335443897625177812232224441241678098668339737002378264576.00000000
0.09500000, 0.00500000, 32402629233531349772908402589418958504676083545230622044697595631964985755212300044225595588872007643599420806061189988461256665093170984343588076360502001471810827763629343281910906880.00000000
0.10500000, 0.00500000, -32647059869780153890528874416583766202772158359345981380630544947429635349224614691220312663720516710943795084546270177458197450803959846823436539959452340085453262309849780347125891072.00000000
0.11500000, 0.00500000, 31750160429676397802999785885334541334775063690349982262068597915444923572494501278478171518577994357834290959463253350573215585250549977132114181830574438340111922704842302655555436544.00000000
0.12500000, 0.00500000, -30788512733269246331446029564487357604371132461278493801262101699178121135070432950980767411871411226486764829423141446585963102533268417114476903944969202543017261438281884799684575232.00000000
0.13500000, 0.00500000, 29766270109771948362028812562844728176178122376660166481779071096116665400947540301234071162298909088890969503474799285655563759279131683167264135615171306041024449421773937281964441600.00000000
0.14500000, 0.00500000, -28045807426050685247722477779367868419093050556730631844089616253959939308034946262061691950211373576783889065851386691313437102429278347470097166459940453293426449754219722842409271296.00000000
0.15500000, 0.00500000, 25612678641770294292910296658610983492906238760803511019494573116937041987402275308654932170787403524272339742490023405192200157352259144910935242162350436937093530989124978505055993856.00000000
0.16500000, 0.00500000, -23042565347784030364054884727725671280963502655761333154302841364415807723952947960751084012254266769475965423834416944697877125231879587709641095712065383846115235748614808873671327744.00000000
0.17500000, 0.00500000, 20682749795740009871723213768555303244302311944805095954186860857865444303823053736425173588155907502031831134242112665202895071718932081404855332291016091117985065621980756375465099264.00000000
0.18500000, 0.00500000, -18395957692657333664908298946230810182404573371245888023067792685008619292591397657147073428822726020082977276582242907807340544487521737674560754202604091645308082209653832406500638720.00000000
0.19500000, 0.00500000, 15955420191463155544108037553086014367208385609915666509013340664560235782405187600832554569471417804043730313726742209280436038715203644565421406848370042687963033305359200802905784320.00000000
0.20500000, 0.00500000, -13453673853128862835736033202309389183441638714562574874605629219588232087807890977151482203001159878123447801911945699659702069113543387458729011818853440362680349689566031705261735936.00000000
0.21500000, 0.00500000, 11060706115164294199737586127765656535558501928749282331109481752346430868459620011101127465638585164185946500599197946351112733490702097351868523284346360488906379485079000388248535040.00000000
0.22500000, 0.00500000, -8621404791512121498961806038193001559413650574303279773032939976483572256237990419428849137427631281879580270323139908650626546207637108780254049774338313761633552513882700272183017472.00000000
0.23500000, 0.00500000, 5948172510079200108178565860304240933559606976462992187659886701987867750410618761970650130098269850433136193199618069834116930369341593985644800951770524541874067983070405449121529856.00000000
0.24500000, 0.00500000, -3150176057159736064574350215743269984170225339638547878215963782611710659101841537547128697495394640910392625647543967589770624735143849182623059386901670036215986492550555805243408384.00000000
0.25500000, 0.00500000, 466745606659504209642710585879509966978663464457674454764135564768974709115040510760715432774627407468838783364522505737123752351857667946211169096892844367474391992836494911428624384.00000000
0.26500000, 0.00500000, 2007785482522598278057716451966234201601247051831778084165405508054693103705652882559540674415774129717537071078561521943716486243435686470427475127391707159516761665106277342369546240.00000000
0.27500000, 0.00500000, -4259541582381907692093214599609867904342131321886808223782475838432514058434585937201696958684370369599841648404817158486275006102584310439012517617903898700888708878498069700111499264.00000000
0.28500000, 0.00500000, 6243878880529415077878829525223148022053631307110607879334989756460642480327887953498513809235526467818149786151453649976163656947588049586780854369997501263143243007617248800760922112.00000000
0.29500000, 0.00500000, -7967682483728710196502881423074615998810423047571502465558206372970681992984498662230756971869618586689447859983001513599524075978610207333558550539387042142138575412574085058113044480.00000000
0.30500000, 0.00500000, 9456381822238852839921475777052071504837028234159632875383256795054522127063306194631659141653560997039557945896504465730662810848227317522605906007048108878614402460172124700444459008.00000000
0.31500000, 0.00500000, -10853015898238914002980045289359005417046874738583980650350850461947797590581442145394878062144651307492761384267851982092791395903448745156665724948446610090170529684798727082588766208.00000000
0.32500000, 0.00500000, 12459407796878595517581115891138624828368903694521848677753034679235679879826448824436859801854818011371225198093433650045680318177912016079715200427179541427446979240240872846948040704.00000000
0.33500000, 0.00500000, -14313267662609812627237695458687645485067413443787539599693961896988453822994222863991642923197563792930852712177453675890282296369746017363393295731801704773014533075281014092839518208.00000000
0.34500000, 0.00500000, 16140122386796118253416236057230916764217581279321966945021661060184441316730706375243817016950014129700231262714977048884554204245216226917339616056118957496573485547024745138181111808.00000000
0.35500000, 0.00500000, -17820279320172058155094325174607059294312876692055454450175877685244421385011890715343742050077196357762568019440527479561175677388854881448148516952471500863346223622156103411046547456.00000000
0.36500000, 0.00500000, 19386944895681321324111160439276105070755570596890897109225083482272392694906941190149643918991400704911011750528994799827221785779332131672338625328452607349574099862073584404435828736.00000000
0.37500000, 0.00500000, -20850905660972775597095579825354428028346822931322406443754215706965252143542976246520279366840010116927854961941929049167646977141947496158046214232506737055853645525589706028821250048.00000000
0.38500000, 0.00500000, 22180400410271710772909287240265253514344012912108802339239523818271415629308279196415520684671428434234731857191512667002630128315497564313992147410368897273039373882151806592882835456.00000000
0.39500000, 0.00500000, -23123902075682369291560151747889970928989818351246772712433297975874070740550336617170317294425790147357607113890801107009202981356962526211443909737407142759499062058087445491156516864.00000000
0.40500000, 0.00500000, 23726177124774205838036476178218165702220336123853078019823279630242039346629302326384088961763439348065918896324391267033333847060804023305709959785134911673300606454620145465193136128.00000000
0.41500000, 0.00500000, -24460535609622540556762608973556024880271278535497715225836377406665212844273038758119242737730693962000211994724939618221900419187496228874107122417405791065193658926422046744894242816.00000000
0.42500000, 0.00500000, 25263154910488261898261872976516177063929467123469069628714782179673561462932755105737668008843161316768081110810384536797163352030001437871512738756355162909431101041317095275176656896.00000000
0.43500000, 0.00500000, -26093674520251965048368334880776594871635670751561274121412609723715188311584727995570579781302736676626832144411875161230424676790771997863760639457280567015812542100987855969682718720.00000000
0.44500000, 0.00500000, 27282864238544283007531078505065891017941133981442290708867363815932318679479172896801169132277318061850873695872223897922001628356890411883553293374592011262226030653113131361063927808.00000000
0.45500000, 0.00500000, -28564881038593621627120867604527278382723004454121592326755307844220398152412834403583890670584405604448981367851997384389007926134322868874036678486298926383845187325167170365727703040.00000000
0.46500000, 0.00500000, 29874172934872519463401117056774344361312937603162185496957225408025636707385042825983178873646112418626691557285440861578304591372428314882506599795662904542028307188765807204332732416.00000000
0.47500000, 0.00500000, -31424373343115661601793190322643917983752645079869864320280806135393926756908964191495295649739486911219039160572721754916155418275402610051721908284767644892746355240593403680227590144.00000000
0.48500000, 0.00500000, 33277606747600440670430004928939663697904167485986070456128381144173932587181912051197290907002819655859647119108635718850636587317331647829793986584205856599737605356537163265051983872.00000000
0.49500000, 0.00500000, -35710692748536809421657937129649250691394056754781933405320121310159886779868646672085241255294924541835549078422589374920771321674200990026564684753339393098879040257907295637653684224.00000000
0.50500000, 0.00500000, 37394850695308502674291689217774827058439210444133188682528721638159541548438015084898864040937894309510696542894194661636194648322013858574206264461256524908017283439213431791021981696.00000000
0.51500000, 0.00500000, -39547433729871919334727697002325890093131027151030706504893510385250313120794905879373794052415993360693719220163758024152201472841232316851217984736076820655127406683011305023391924224.00000000
0.52500000, 0.00500000, 43340640024516177989631726500105474735476558385964122175876840693617528106486026273725224262020798012333300633147236543868725334826309041293007466802345065317109279445085216975773237248.00000000
0.53500000, 0.00500000, -48916882191144912891290903129913103650014790079884293944666892784284527850286950657464861905311611282099302794194839424327134414323220777796176610645663518633643374431635968303288025088.00000000
0.54500000, 0.00500000, 52551864548722518562947892123858875127741426754508929067677000280781920442657008276262698786569738839804621770393454621643224657424164399506306638333209720475964036513812364852648214528.00000000
0.55500000, 0.00500000, -55748786658794610587327934435757248061669074882048463316131036297399345885046290599395502011664728488706719681306093647982776357423252268647109034157187391915164477369178697619638059008.00000000
0.56500000, 0.00500000, 60325336950787581937259637796936945755796652180354172848871396498105588324616095353195601318037120297782001289326834802962675897181142147960947957218216901449276075291849816697932349440.00000000
0.57500000, 0.00500000, -63007583199139851709984136782493467773571814870762501328280138550982171551123848170165356959338741717270480228780603279939304347030865627411433676981056751839747568018830356289706524672.00000000
0.58500000, 0.00500000, 65549471183750659245296966559060756133691969829563699673615767726376890081043084148635194776514199966155300557298403212911759721146567423134025450392824147802551706560674697558362161152.00000000
0.59500000, 0.00500000, -67932402103159654232548843699561801708950754473967839986635105327643647853966779125748811378096463651199018863729250066724238854927485553245204768385825003144652105474543437687033954304.00000000
0.60500000, 0.00500000, 70182877004179001701217628756466440296295292018348439769692076610265151273285193503714514381135514349667480954399164319431051465605583425189417039539433601897161913613707750394065584128.00000000
0.61500000, 0.00500000, -72552290961496209153437864391955078417604052892735048344817890112850105944889046907661642140393332822480832031793340947202756847879922574157408975211327222838772528109287776089347719168.00000000
0.62500000, 0.00500000, 75347861982249332412449586052125399931037584444096571405447685810411103546962338234952383555535289773036458857004284735913375062476646487613300759915009410615036454745811692832203735040.00000000
0.63500000, 0.00500000, -78417979678253045148663217115805077625943200152690071461856042690071138396255497802456352471828894193370034754020180649155960212602192385303096914120298969374898701519596382370066857984.00000000
0.64500000, 0.00500000, 81131530899006405510351329884638270565549479576847147829507166049282127117243309516719894656064122458882831169176008497355269289886559683970224799445324994780819550107293786737936957440.00000000
0.65500000, 0.00500000, -82902516932068969278229594352388662755128970646158464696195557266625060934236025347748702734200998834470192475745186902303837358560568690839818802410519509058883566459931983793549737984.00000000
0.66500000, 0.00500000, 83429270352499200791621271802103346438490740058876672481226293651192531168515760296200407702354658762341191926602011946431549666377397296121871276202323947643442753041411964101504008192.00000000
0.67500000, 0.00500000, -82580156491354628004198328208239299805427682949905958432230995614708989938603444179981882954454768632208719804031206637578178501099095410995676050338911784983531050547230744189062873088.00000000
0.68500000, 0.00500000, 80283351790088904263438628891699159098200749164645621921246464653152588366427468739955576963998907138605935913556985199166822087755835335654312132659393729158539711774151552023509598208.00000000
0.69500000, 0.00500000, -76541262396657790073384544338894889278898023261830191503248594051096539233965618598366127719182156549534699612256771094565815907958710441085044810048872289101269111596687040521374269440.00000000
0.70500000, 0.00500000, 71540951541550589561605874116015277015994779310301926162038978104108436663309387644274548813991198008493040554725818992728152385665747514777584058476873081185730282506034503048107130880.00000000
0.71500000, 0.00500000, -65670410918350877979460588668981703676656315024625073427476889077399904457415427767378204698426313717580446287544027141569436347493394018749834139780753928241608057209513686055727923200.00000000
0.72500000, 0.00500000, 59476013715901917584466559507796552759571408845125201005392306629719953809824452860507609647128811208877111423050036183881856858620166647649749862315879077653503054439187024113049796608.00000000
0.73500000, 0.00500000, -53378850856417493002982247977852705984223965306522132798777070890527206849023583227340268668909473346958642398354537703328861022849185873933560774190410216287032943948080484607003197440.00000000
0.74500000, 0.00500000, 30242141321713887732034805929993994870190934772691560073768974113066983834742832808107873624500334478159381406695293536307395139639239083051342405599757926542221430644187689685541191680.00000000
0.75500000, 0.00500000, -41608233397109541116272102119631790962686681643891497818815231438711763405963968892495214106535333448506134294161154483463625791403835557823302285720528341852824452782188868747334254592.00000000
0.76500000, 0.00500000, 35918897046535312348201554314166006321483298854791607318627627549761427164333401926475969273989558612791489001710966676717111587510545115433488035639366147280325390356501276354095874048.00000000
0.77500000, 0.00500000, -30482559853536128897714579548492135236871950221623049864249336868246932707633563403451059748117986899924716518711235506180162214356239460040615199599209421145339329605193698358333538304.00000000
0.78500000, 0.00500000, 25422536315500846164044885199874751397846642542561364206581746175174956834492758041320998646709409018770600855508735747968105025373492218354654768952570063943215203965127799036482420736.00000000
0.79500000, 0.00500000, -20898814294966221192954656737229836793574818619220817143103570724971461124033017973565219951484649369630653026587614583679217252461313138766290872586547781309352644523721675797017133056.00000000
0.80500000, 0.00500000, 17016677517409897837409707424109003768324082131214416574056534516464242656116180917502457326121961041688034923903403137686122045558706784885417261911530687785151360112376867998138368000.00000000
0.81500000, 0.00500000, -13563357072223619243573985116169663595322653097125593561374339687207631203220053481435537550853245821925485819624631225794475760042236843081799887324386329833790211327075279234836463616.00000000
0.82500000, 0.00500000, 10381964234906643187020576631004680028133455696883359461371601265863920911100540909816829459232383947391596454980622779079999792371118880605419059391392052774578013929628773871888891904.00000000
0.83500000, 0.00500000, -7767140103120224696226564641806672973787801359550989721375040079606227355424599827341738574411071521514340495335489638528837018194878054226343872771974527183960796934129584247347871744.00000000
0.84500000, 0.00500000, 5710298848587150575761166869128587939338083086317508194147837950645325285758890714803516571937662358506457744788309976807963160889432936383126461681801140213869241549484365305719291904.00000000
0.85500000, 0.00500000, -2922952743623949058077881444211605194685058124185803126232878565965752523711265194398192472946055839633088009652796642111320205170098977473704856015084947120098547086493878168881987584.00000000
0.86500000, 0.00500000, 2383695218939709365894075265242996878530958939061770047194486297698720442673211041919140525499893556021236449502550426383500462787134890994085964958075005129781623223865227630327365632.00000000
0.87500000, 0.00500000, -1307355266519203717934072014594051495546877746307262877701427497891583956892935526804099410049888765959037561240756481146681948117851800253709852328368684995830021894796311905330790400.00000000
0.88500000, 0.00500000, 478364724152352059839495102123253363113207425323294932429889720411063212664027405430253752427694770590729570952521499758808057720348383331859945645507203630204014992181745317274714112.00000000
0.89500000, 0.00500000, 233745171479377392460281844614784414952654412947479101519359056593164960010191237250187207262534160096755531269250116950922719257872887210783802227703803464341117883759161712589144064.00000000
0.90500000, 0.00500000, -919975854764336729010826325002029651824206206327432774643443770065695099316863211314117379775672194037742462123908804252919219349316763011896453161135339100442420039161600605113286656.00000000
0.91500000, 0.00500000, 920320539802692258388618527614167316110991468007315092332445127951026916022961243397446722844173380236512526692308163391279525851175736548506218170844916319692539655448121055077466112.00000000
0.92500000, 0.00500000, -2136432391873869111208850600951414298791534731677986694700355133133486247278094986333759269814648200507164391476330451026416499656286065402349019848356742944633894780281563034001866752.00000000
0.93500000, 0.00500000, 3297495193338676456367344210782023656999731953980923845239778794616673759996812690146096750295515558365265412975017549399356404477496936585170607483020840351384367534223364176939581440.00000000
0.94500000, 0.00500000, -5220825140087206269311616714416054029638572477832376308887944119585380551808005874538405853839765374632472005591655323239563161867545102260452141880519571936134266713288156383297929216.00000000
0.95500000, 0.00500000, 7018887710844573783016758064856801888112074212538927576386707393060562161196987013861340233008203368140378241884975784139777618646483471035009959016274852433648748900931738162524323840.00000000
0.96500000, 0.00500000, -9189789817099319980792926023636806817019837161701706567039258322956261741324186193530850997189879069312030478678856018805985137807581960578401012578958399025168906827967066459852505088.00000000
0.97500000, 0.00500000, 11678609513369200011437110090588689669447555646145003466622661989573834306301023735228871572817665806769808957144065128983119793880668711461244339122097841345710220679401391959442456576.00000000
0.98500000, 0.00500000, -14483906772849534287260283932338207816667935641429089799995297185864676971793923773843149719252345459930316111341283984455016145989147356948033195373208864305975468078038255752259305472.00000000
0.99500000, 0.00500000, 17679484435182684250781442750989367981449569506155946720149470370538799882683785073637207140758774062745959731094617489599382531994320061770091828255388614047768344325421678146422308864.00000000
0.00500000, 0.01500000, 27341411949008835876705510928682436922755157486100164064821163068297045226658895228413518141329418308550903371097735857344161140162827006610499843591079559660831639466484000238711341056.00000000
0.01500000, 0.01500000, -29091499185045185223281527337792623928747424916013776732936479095798981038695868416405040473905153896168069765477041519817772007315107124733523445990554907557370246509293072333410402304.00000000
0.02500000, 0.01500000, 30159861009778461438875051975356488168907546477255836409599189781769434265369900694012770579164938585493033295539908772632107846490933932449629927975771222192343105813196018230941974528.00000000
0.03500000, 0.01500000, -30433665002832113618502112445041021869136729138674093994075973473287213139331967012682710703059655417750134828955693163000859775154627734789213465217867251660643623826967402354468454400.00000000
0.04500000, 0.01500000, 31690729239257432871193071044150763203397649687877237591872039167912667471128453491074497121865731687131267103694670117244738786778901394481432449146196874437558719641598170034492932096.00000000
0.05500000, 0.01500000, -33445051987838890073351991758468697608238174661960526550468036411395063218534141793672718492697504009929224054262756543944025077743793660403205685536791184854764640567896017096365047808.00000000
0.06500000, 0.01500000, 35248182128765202631458476176935279143491508455527187419599066399317030586222235479322520624773085211622807645333595788687756706527760710369594347966613484981679866346830169171766018048.00000000
0.07500000, 0.01500000, -37439825526174413060121556226256547396310409926958493030369600279718185491742925854092442060814362130811833731237496387457741912244342325678684601070981456147432215170255896041133965312.00000000
0.08500000, 0.01500000, 39572003279930646969626860153606317345734859589828170564258138173021156312205511335155647212499159055150408683741397965470776118907298210657921596880748269459875408067972444203723522048.00000000
0.09500000, 0.01500000, -40414160714793430757314558507843592721264239678884862994195053933023822663805076763448109899432138634607781234581922313297079247908752383846886972682444279888556766554257421533987209216.00000000
0.10500000, 0.01500000, 39738751900960599708861921334014170542197725083678453125008933585768427328739498201610118262095388056108800108000119520624412375816572424753799231093021497481631967482785065883249147904.00000000
0.11500000, 0.01500000, -38467334049793211917610635528961629597450983018249782692912772136285532998422143492720480108596100390368850560506683209957178473250611499339801308361808341874608538955271295161218367488.00000000
0.12500000, 0.01500000, 37091768918402210482893391008365063333771294943391049492978895413527357414795984644906389762092499102276161211220949719064557885975564029083542816569786223579706169595813978806782263296.00000000
0.13500000, 0.01500000, -35134459493882131145069088829120935504280143478725868576396592038004543899330523726955112522119758054511905344230498539548357732500209158913014667632315148152875165995995180180030095360.00000000
0.14500000, 0.01500000, 32340587314340287013971605759864817243315399614086552613007185423525242743569137721557048485526124985058750375591548582667268191329667752979372761068608439320222550106212013437114908672.00000000
0.15500000, 0.01500000, -29276686433461920619799509676754101056993518022475371599544307372150381124834794413052920016845978063653689852304555620139190180692813730554256916439823129555969615888393783870002036736.00000000
0.16500000, 0.01500000, 26450862252269579544868191081768410864208310840217853997609471645430369633643742084698388998240214088560432264667812423953221459848922401208356231555247322898505671918987760840701116416.00000000
0.17500000, 0.01500000, -23755497671316594406143762571495785294113058914686908952961815382561092727050442267439996584939205533591327937571449375025830444361673963286066644075741306369063027095926887816347254784.00000000
0.18500000, 0.01500000, 20877301075628710959061518468686454443307722181909638200107498895569051068788302220863139683657038915815496973584294764770638771491041859490737562385967046582036665279501514078458740736.00000000
0.19500000, 0.01500000, -17818825082004586025105918467870803093312309521640158884934022066860271685675140483776843600988572749281919800789496272538523355759113302884572987362209976117532908753584352739264036864.00000000
0.20500000, 0.01500000, 14813199537434238398235918142042672937538043760175806299772081146934678449192716475916174144138834736316300619368408680586694326375070234032746877624913842325614393365991855370794958848.00000000
0.21500000, 0.01500000, -11853177839509373826521311853821715621270763404724660972793522222293536390319037738802269993736844232409675342325976589744386832781274252572827495629256340192405391866292457457267507200.00000000
0.22500000, 0.01500000, 8717283341092662348556875529407332037720824162498024907158140643842603733166488810302749949638237982607707507817349574969763698722309513464540677515806588474687292607829065459421937664.00000000
0.23500000, 0.01500000, -5402741579900216465906122245704838753218983121153528405794268543592062454723877749882774537881359584744040902990821198240288320033858737952423515825532443874299218299646329201761452032.00000000
0.24500000, 0.01500000, 2111226205938367030850953184400751704099594826955186169346107880605422786904285182209513820317559130325738849360409478530310516795214963464938120353430957904841407218891568862455660544.00000000
0.25500000, 0.01500000, 994769632782465282810883041782334784612245556878191172324762167575602919809520062083509738277300788707322651477293456137915818224050688194473962560136609015175410931018238882694037504.00000000
0.26500000, 0.01500000, -3860591294735438484632812841434215771702250753215387432338267621956510852788007882499732929288332725628085498413876131569833743010575543888766560548950230673615537825732044037281546240.00000000
0.27500000, 0.01500000, 6435052588039704104465626074419911605218571695377393241014210217669162727545964578617375360284209900549988273498625143554329065623607608301090868444281001096735597362937211379095961600.00000000
0.28500000, 0.01500000, -8694393181783396418699249543931565916578088954109037585112248143879725105164084859500762447323011974623684402576674052735079718204835236875449748827088149307945263742432780216340316160.00000000
0.29500000, 0.01500000, 10645326657066888091936765041767090825581296689059505445925440955811685636078990085331459198877272567991457628475381000342299409914188030521177144040745532519531734052024057758507597824.00000000
0.30500000, 0.01500000, -12356542167985901992639340865398900105613095615232346696378818327173792155264735957716424701727349413596303158450115103147441371701663854214274851564521964603040973887868765563112128512.00000000
0.31500000, 0.01500000, 14032297795635840561908066797794047127565960270125269261368491329612112949096796530447836063096231887947209464176439714691194341192796788718406289509865395057528303460139006609034575872.00000000
0.32500000, 0.01500000, -15874538949465466473256003361902971927288471058421738170146394453503904978499256793145810911364409549815136118486849460507209983359158175504881999005838920280119185876840315830719741952.00000000
0.33500000, 0.01500000, 17819603480275380780272434616132334131316018859589969661911411064380789249638431493927108150452082511691383498446391920424507133121678571697393813904807981962786850083227425313654833152.00000000
0.34500000, 0.01500000, -19689340986099975207157828475363648385219210869890962741368024398456129736135550983670797146001264921788308119897077157122310736691403486452911278442019657439012994994376217711840591872.00000000
0.35500000, 0.01500000, 21403585326344527819025765318117416653654469283902880459656698637022924180257173833945082870587735368665115712703833771171541091287266585096470750925875470343551794597642989135510634496.00000000