TITLE = "Linear advection equation"
VARIABLES = "x", "y", "sol"
ZONE STRANDID=1, SOLUTIONTIME=4.65, I=100, J=100, DATAPACKING=POINT
0.00500000, 0.00500000, 9203883768760307320853324950507344058540485007013859661942281501964607947709986255106536440182679000428392242447982079783238920544122530408106798479936427141409208294109177957964262158448184588952705775678358974103552.00000000
0.01500000, 0.00500000, -9637443494365953881266900883445507189594748866575712136194600407044919574066272242694057992083727602795530452278848153048091048126987194886569789487502552143757544311156458512676649725556857361833059743858225066278912.00000000
0.02500000, 0.00500000, 9278528172227703395806351080508194325484499537994536941719248310860728801148423346124749400516644750727341755579400672955581725001753910530253277117365321113343982702754146754911589789954687802014628173221999843213312.00000000
0.03500000, 0.00500000, -8290808333390334332602065077334898030818238610485264754061800568673297741989448796661136797418012676744439338610996903978716907164178768862808656029994143670112753053083349057512174544442758587742734914415000742264832.00000000
0.04500000, 0.00500000, 8216958600999883375428217703237958713983247837418171003115806816630716286425175498461203826893426763123734377389657841440570719153313457231618827772244219461022697622639156278737285560977466144907463946561113783533568.00000000
0.05500000, 0.00500000, -8434610315992527785674336686588988606887788760422005073494269360775856949825907863774275203199870282742732067189451509246360773775671518153316663503150717178748565796044102522227741005178420272421995967433940668514304.00000000
0.06500000, 0.00500000, 8178678127483648477261145799547592242452073179846951372771132530377363007417274707391561435483902792588137562807644387537199458344806384198774996925245289176459633146953159723892778584719808973208643058065461406072832.00000000
0.07500000, 0.00500000, -7868450114859481857413882729584919844637423564165266369105947329868253544189504735736339063225668268310263133962400275465801229346126541642809683752050628405319051379024200549090957415402450326377459520155812771135488.00000000
0.08500000, 0.00500000, 7503821248349993355035977533525782588525389775009752059560612958662220914538061957068644819406337243073941819086234207221159058242463922957019944029429213355944695695744992931075600254475485732454501174589338075267072.00000000
0.09500000, 0.00500000, -7142358986070951011076630353557171617446159373777964957849479018278615221138099605361688987983329492409949527168179029478787320332728807792620956145271062242981888601958953849324066953566965184594521694990974920425472.00000000
0.10500000, 0.00500000, 6815204905646145517590885302306374139713658956795593377480844736565572937544544796733773754981254919125572798252221876576976278002467825575017327106048652591281735238133720229658396707218939646207210825217277746479104.00000000
0.11500000, 0.00500000, -6527186471135848277418349868886356930208643937883336861323107409116683412815099674597194860696387729792012899090607144808825123153623851927507100250526357965225962585135988826788885897080869564380918609244044633571328.00000000
0.12500000, 0.00500000, 6287404366434025269528567316239369324504050856067269699666019455344294210795070954117092410115010840863823575432166600595145942942940485921650123704682947748439177295014987169491909535474492514660426376947555039707136.00000000
0.13500000, 0.00500000, -6112289724559013549970834168028269096789209140603094830606045304150555424685570092462894599402330231034013926705018417561224563131630922114065820975748797084006363139066430037354785392198604695119339119596894337105920.00000000
0.14500000, 0.00500000, 6013970557865279538453657774701660348772059925131692300063501490541193257077611132906368353858749268752994666881524156015855555246859067829522307850619003414284858340625664151457104678849897101121158337281878172631040.00000000
0.15500000, 0.00500000, -5961662296397786574943219535603575925484614849492543202455250078322991411738836907242722007743940490744864727296387191522559804771874095318815818925280983646562929452419152994590594604710295421726618854840371616153600.00000000
0.16500000, 0.00500000, 5982742275661117643115145780395796942679687495528152714016672039435923068771399168486518971080084571104294055364960237261232683024914681765380786622064833566720745231408447037762396842692678193214167426723863867686912.00000000
0.17500000, 0.00500000, -6170964356624505245627708123449782436048375409586404539805125491851450007787964428916609760343003518628519941106716245175745730286702785479787775067039266069187241851187664671962191703961106424727742510596512444055552.00000000
0.18500000, 0.00500000, 6471034025096824046618409465500498469704241278261364873808399484034636488382654801093848057695694874219340681115345405246701118380929682354823286551491331609765569794798766384612258104666390556886523939875368170684416.00000000
0.19500000, 0.00500000, -6780324433823657512129219146461148481010561120393386266652976316886406558008888036985745735284227090531850636375661316951575744528012666755719006469396592149204091209619143825965474909440687064178617399291298025832448.00000000
0.20500000, 0.00500000, 7088472771146225557253654910357039981463596263112607317823602839456717580417831342743794163327597385315190904182017051233399415289540896802607884982587692577839468869132512331014112858180610845236688996499545875546112.00000000
0.21500000, 0.00500000, -7373859965311918050996164327675075612775226825034033074053419536142776290099246372350208308537906263770246043126369484223466284105680718476702950526457892636430640239387985134178829457961956598144592693367094804217856.00000000
0.22500000, 0.00500000, 7596987402709410615669494556879096304979345854829250853895190459699621530194217347518603151320060737535426712171067489089686556095548970858180670787740563674802578424587452611509255581005146432079468949431662298529792.00000000
0.23500000, 0.00500000, -7727619376506183212051887738992216877366977515078463790692691469095996553084564909005768436202633870236791539747684547970284071024778599368221602899944961660948690633155177505229679515236913157217982602556759043211264.00000000
0.24500000, 0.00500000, 7728741483387899328857549821679231699471599600366836450588164172794250321707933239811107782126536384497476239528235378313375593590443140708217976107402069659146392008114192357118978671824236435723313523122627831398400.00000000
0.25500000, 0.00500000, -7565238868195096319878877200668769471656278881130977963094627161042642219736061295648438094048947492467835135888324564531846570279864785117505307654344802092144425475146920855559248720089862051528731084175214387396608.00000000
0.26500000, 0.00500000, 7236262501005466486397877217892559999894706221024084653708773171412912302655368804734587353037781988570363999347551989311450085994922568190930584778039452672190910163210760918388339674012548762743415543757194806689792.00000000
0.27500000, 0.00500000, -6783160827372490405802114450329403742447967298665789213852243007228292431490095842378755116150992255797030385746939415365876521736670417503795626233771179388098329877259645067532730389659110876893381051415650233221120.00000000
0.28500000, 0.00500000, 6273116180823524163166509773263208147393661987820053638071133486407433533066537543852491597609009222479911105019664975279737083064824241065481943860237633378801654143556454393275836002504414803334291784240683284430848.00000000
0.29500000, 0.00500000, -5771474924184519994133452362521839798072876869389373797603971758278657038624948438498892369773395418500459856406319617048394914522916175598990254527730259433529425983267574846024157791814103172515958419893516524060672.00000000
0.30500000, 0.00500000, 5262278433079821049183986608305194725140880502406553554632559882329216361197435469405017251337522701401031252814381113092161915399219202292272511286982343132723509367161142193490731525451840010653656135822567891009536.00000000
0.31500000, 0.00500000, -4642666983592200569154356199080189820890840698088510892366215180803054574490796812745344061509721856235411710013865590399507200582376690878260096833110122051661452082802307320459848188090270690687210577821626089340928.00000000
0.32500000, 0.00500000, 3884797777560025303462609362529660711311904710941036172473658208258238643102958725052918545626496124100695806396248452063689507550241243535045993505758542688686515617859158590305195389300296113521196174275945003220992.00000000
0.33500000, 0.00500000, -3088150354048608331521007784051889569223754896223069009857203118703725542357622683897720133684868798176328817753231095521452957210522108722760287319306006215354135008844236064799887800076720257311104630093883312701440.00000000
0.34500000, 0.00500000, 2319808516252588418034607756206679454744219539105278768352807682386334463620328254020781476855191408826475236552158119701498715147853808919907393314404381987636872864642472708090380069931650049721355339613978658603008.00000000
0.35500000, 0.00500000, -1545677740326814251808641649374970258594204019639722151779604637303769980856520399617296854408629047119496176146560432826552335518976076339108047637945922610786833706642104947589444413782013730857754296206028747833344.00000000
0.36500000, 0.00500000, 730092386774080332870520487807581003276291308270989641400008610936525093107559877810645123737658734932677642955346968795302986984374796422061831034404532853637590309737020570282808737906018644232559674262319775350784.00000000
0.37500000, 0.00500000, 108739994408650338136812320444809841668216047184015694236623026088025071307440814829719586928755521347143417747319941934660323342547247305526934578054521602371988116840727343416253290375149195307759044735092234649600.00000000
0.38500000, 0.00500000, -938309964441939093832511219004579128505842778535764601993072259138878126551255082330543016618468193542995493287945189090186902791036442214911913282553227839380623940724034160929885504752309296238725271806282850893824.00000000
0.39500000, 0.00500000, 1735712012935069291992913951273329721170322222859984781288498513057653003613639949122341024873133090501879427095188754707421319310527794354314758225747871522268988958161289136744046706808007887756616587984246595911680.00000000
0.40500000, 0.00500000, -2469239549984005270471470356513575952272598817232314621538650104747417716773824277227744901024836801528622907035642751962831666446992413415970564453248621633656959193163587323426387287040901205821165547841545629073408.00000000
0.41500000, 0.00500000, 3093136649980555830218361480413165101908615431442707181621453203678473055570537679693250618777601435584777842385249247452792195694937328404886751983146637212173181242013322148411554888935883846891705299096661273870336.00000000
0.42500000, 0.00500000, -3577141855679408646312122076641535990176986223882986143963617912475862422871841996831691796132831206062344740424287958347059272893416220174617978208373038272373887077964761130228883698561609434047583304797820880420864.00000000
0.43500000, 0.00500000, 3917132960919193215844035330884776224512639886272182446258382856719977544045349309426226000367313782125150550965072746139583593956758699136498962481261896114080197986586650715356997240136420708200607700124131972349952.00000000
0.44500000, 0.00500000, -4111038082106961894475257103866220965833694067152556325007246284549501233322521830250945069605187060559792612049391206093012618374242503679658081928752418070824963043011139502955284629609359851954312790077447224688640.00000000
0.45500000, 0.00500000, 4165229247088067832477175452372458937423122670826638315971622718694110905612803268112391448230249102204974396017465867026964731514787512529955020590293329704723347895410257152425312925369284696040453694341346702131200.00000000
0.46500000, 0.00500000, -3941223970507238334442107861541578600207914728056474560890365374798999862132240368547306560999077565819944193922311389348924365357071022277114206480506122100282300020453488070258301323559586487132351516672877431619584.00000000
0.47500000, 0.00500000, 3847340690409059960197997551613991867691517440768795953183676365257203119063264841677144365507311790508954385421857557111862699971736871603921067971145005065239169955845166138595610653062037363138409393996459377950720.00000000
0.48500000, 0.00500000, -3884798936533281140216530270682333318594598298363573933759950498316007068919126329161563892649278343719428409592601607917841259151222497008324643758148507243289472239544260263632951423082928456158085789646349179813888.00000000
0.49500000, 0.00500000, 3521802090377373737343028937698582143990337645055177003220271883058740162083767650653481943518291984951621755226095877121988749840464558451932353274220915651846952486978767323536198481055364748959837474065393446289408.00000000
0.50500000, 0.00500000, -3360135595764910239256885441105148602060607466042151265334754564979296261538343576974718131389711123696990817490990112739056275444502231199579626384173890330623919220038449648523510013837992816121730787540549366710272.00000000
0.51500000, 0.00500000, 3001603559267784168158746040990750238276391886190264591725597291788095185515788906665011692676021372913012410754076667133602920221249214544840661859516276311618159064903885709377042457711711920964870998888335632498688.00000000
0.52500000, 0.00500000, -2617540176466347037354334213658107994113493864345812214323246304636047268140225282778367374597207628412926769851514536716862554796185409848291385844552418775488799624632656537726679820562337602131007242911955686522880.00000000
0.53500000, 0.00500000, 2251871351259335361356658334786114397188578003221691268249538368508611153439538294710282422004355368649604163452559244476324515983796529473864915912942556008544787056853296486377116978298124824667742974160416056279040.00000000
0.54500000, 0.00500000, -1935590289355747782146218456277377108172647911815861477082355994109712331309481090917992426310682019833865901880661458092671306871861217267119022341680259950898145275447187390278100873517663286519179985915135811125248.00000000
0.55500000, 0.00500000, 1598142104040653428315828296849266958232351212835566429987055307504440485721025699228907707365366953278732774691749545742452208760524183288657750210491493942960478256827024622520607332196466963639990184181752685133824.00000000
0.56500000, 0.00500000, -1343962335452478191430120848963675117607442375666854219165112070847456591376925481925614421680025587006381522463228410361776859839457716563356730873454753849140235188506037713276763111103099905517871032854804386807808.00000000
0.57500000, 0.00500000, 1135066316941566494012357213975796838471187985791664944486957514776022095905367823404074437130711327711508908072150514599624217603712428514062947448654146749814239879241943831010305085657946769181651401068636289368064.00000000
0.58500000, 0.00500000, -921538147395731298317648753652775382429195436134323329447363895439429967659465428793848073253709393978937747925889806059719281118249657945670095174734318736271858015425203906405384635666870946495505852450469285199872.00000000
0.59500000, 0.00500000, 765078030104726303711116185726542048980440330235694435610415486684253386500263771800611706831435341023795466185219554383398012492369468060813056955157373421670698500611086121894951167416054077559015283071981728038912.00000000
0.60500000, 0.00500000, -596811204388127383222487529709993660372269519480111941580987766588720625121744564589686190470050159534455610372839111234919919621144656597437669797407372899227239699560753077451549659213364474397258496127185062985728.00000000
0.61500000, 0.00500000, 451797193342399002301485596763722678505514943732087140061121627621548220644723397106937445763827242636147047180538342715649965846624254596989234398752478664556436998440779276477296276762096552205297251869367151362048.00000000
0.62500000, 0.00500000, -328239288380527302875585431393486654889713276270335504292167134371425355909928915219944490129339329957525016506186730090525662754638186692244461949634282104413964517076358497500330332272170828378429911146881888550912.00000000
0.63500000, 0.00500000, 224734071430756953141029227819733929420380498669912421110752377620649133712491598838483365527318358989777353514905031843300051042929557114982091555932836854218156802484316234649569346063855428678768354215438139260928.00000000
0.64500000, 0.00500000, -138236467647348996908493181073054593562410336586860650046095854245298068614480647829744392449661253682614861680954516163065558877412012064387118497369307412170681049413658818618257456904666818786976664534632808579072.00000000
0.65500000, 0.00500000, 65849251196148953569315980779495399969837270181551512186250181292921421419143362322379196135183324192744434317841785975800703266152693009305295180197751560413233652418864441213293703094909298301594082954115681353728.00000000
0.66500000, 0.00500000, -5154196597296043681242517502723666010045376216225818829082196231912305833321749145577233138527536746160541421540026840787580659910213891717347241062135474174304258450224549876840315497078082020624307819696583868416.00000000
0.67500000, 0.00500000, -46237794124522060101704038011960805213387742499414391325793456539855597962952427250605349427996631710228576518219237343697355762329059749449589135643019636415248598528670686809133341830136490653042173403973472485376.00000000
0.68500000, 0.00500000, 90983157794868915987375034579679398959051142176952133662937086232310446658889321819651898555135521503246871804813065993584256701644316860177114816942909950571673641187971647647276947365813166074913486624979670794240.00000000
0.69500000, 0.00500000, -131352644263962675176192327393757154452314858214187869835619977509124131243352409366271273616111549330498859961983923059073194677166041163598203352756827846410189903566740448831122314716841323593721444699906989096960.00000000
0.70500000, 0.00500000, 168917131286320608688967759011697496544585900056983492784982368244095721962305651690090263844233084960098694877100751512884483306797707859072002555851005360332850441718231904485059858693286612679543432399625593552896.00000000
0.71500000, 0.00500000, -204894637211233508787666172359443810182390941301263897154316932742751731191583916167365530196509327230017390026524142385446750338730933338157545482817810743332890186884652585702986292588706716390476622928151626907648.00000000
0.72500000, 0.00500000, 240235197047045509911171391228262088777083824791040206965327686497427158473042715024748081290250417397845050384551873928029280833546237852830578514918669218862744533025987955445060487532122769817237385032790133702656.00000000
0.73500000, 0.00500000, -275831971124951486714720339204615996883699744203912040297403769149633319500288079317235170915168413876363197624095827899536600604751121939276718149351019585733874889552272288193702950102962017712864311042901142405120.00000000
0.74500000, 0.00500000, 313088337589992048528453784406349028781364046213863209694031361715535365993882947934168826041082750090642796130754768441632264059551804509158188983482678971039803324308104408345530075786022910992001568871755253022720.00000000
0.75500000, 0.00500000, -354626567419703894478009695678290633143434818304769494037010750529927857796380754973139178529553101419825806257161038581527837776130932751797777149493696892842168741867943131715478992755476463653997119641828406067200.00000000
0.76500000, 0.00500000, 385612584072874781833416169221572432269690777350900810667346754147921982380866063697743925734275407037123369959904366269693198813989792931922742113016783406821123770299624101883843367374795047672145391618903079124992.00000000
0.77500000, 0.00500000, -270289420193969960149311188720030243953269330322514121802029959593481166115602976244821451333289834902550550580550398544249619510802153169078628872071541501298536294579459966223996408481886949476385702868736387579904.00000000
0.78500000, 0.00500000, 510846014333617196802991546088512422629685412959824860781824875092338657229644225970008061133220409449378691817831010757567940296103166442253987341886438365768601662578122779125010334974993791241199551775798976315392.00000000
0.79500000, 0.00500000, -544587847962764133205207577133336791625637855134476554570232575883718123134759776078617872082762581901678751569667401689433922523794111722613989193829088292235701567707800569434899740092024751034571171293921575698432.00000000
0.80500000, 0.00500000, 586990430130601100833703092822762808548501384113884219193447275978322927008382383201397880308823907443241159864911777354051876596035403169581640703480317811731868258021935910928151748334880310444006590174093255901184.00000000
0.81500000, 0.00500000, -703446622071073150879729680296524252762035092414853306996752354387145509361881114749334180719093296036137007062324305389548254701632696964652138527798522264517534451243254909164923954938553767560301368400322309914624.00000000
0.82500000, 0.00500000, 992373290060962317095266156806631825773200768872229281227469936402170963530480022210404140680214297935245411157990338480689611680089096827173905536034349966848415319457386993459076911059811557380866760860673192755200.00000000
0.83500000, 0.00500000, -1385525770598818134286659336887225651673185542729611538899445036391626269882507708579049616855599205153725975793065650679020556776246667000827601741382157867201312387926099866412759911687584597403584973287603669303296.00000000
0.84500000, 0.00500000, 1533557147856507155999805487354805934577514088342992873794864613317711493735627123246838764991682977667971359122101636221060115743774862302107073256257682724607223086732956440487318314995007887709979948176871809613824.00000000
0.85500000, 0.00500000, -1665791817910340531318606256542096098122494342018484509877000752172056652941909141028194062855188038820064503565438235250330180045636374867077250727609658771137680458430243008316361788315401244980818613823262462836736.00000000
0.86500000, 0.00500000, 2136969389655303729397039886629261797470709648064777437758867703438880159213409988887500273878792781491061983659970217293218751544966014459580967444239310686043689521893713042771593026722205978439058152782809851232256.00000000
0.87500000, 0.00500000, -2603708502115888411416596783852780553942717964061818316211084919506242321736704209594195225780349424778983315222646512256422596496650208766198154735702827505274338542256880862867409287472631287608334021553690075201536.00000000
0.88500000, 0.00500000, 3083883418066858827875267489178022362553236922849047729182864685164721139811048708845868465136944056391116192708721277339508178651239982806682756364695214808940416289987935942376109023121699512560547529661468469362688.00000000
0.89500000, 0.00500000, -3309154023858831887689393134770525853576892110430598856842517035144912367090585153870497226670068556257406776749298075093401686612722918221728297218370458214749485796048086689457773135184435774924835752738229552414720.00000000
0.90500000, 0.00500000, 3893297166329716175162771407164365192428272909690953900696859299260131870500299655105326959912170784788179961196303888437554936478398875741538032832552309489663721000030232930557631504476333552186405509148893092249600.00000000
0.91500000, 0.00500000, -4504208448610918504023328857326007592083802488227018166179829837261403024343047148927425432975910532382201323859313803860878747727770681108719781151177706177733676702143847709730147437519862014743048225410645755953152.00000000
0.92500000, 0.00500000, 5109184775155419295147150418159697619581006296219648419520839472414325381037713834676816140360908872829545646224230509245006222848571518787587149683711358942499061875854025252969782789806507537370501031649029704908800.00000000
0.93500000, 0.00500000, -5678052659013840290546959383406997250523467348449987851375860241362849015020914348468110471280453170517325503527475947101236112690869444042500966926314093921634926695984928131273421762400350914355218843083911334985728.00000000
0.94500000, 0.00500000, 6335308957420863515253451800386295189889263601833333687442251514315537215815346072819987365351096678233992566774139087467650177964360170760035139282321448773184059980689722110345291462747824302579911025662074743160832.00000000
0.95500000, 0.00500000, -4732354247758430095849627579304584641262359114571932409783433445307957530078179415573290973350639174426355678499101427091767342020889178465135849345247969034439768091095250865097173132996923730851464941810388610056192.00000000
0.96500000, 0.00500000, 7853500871343691816354073322494990710037979018866090803002166296454746268273989780892136829080706004487815739945103164861196414504682894466477872848987587748302599530446518057453350932077364127051695144769531555086336.00000000
0.97500000, 0.00500000, -7216474362067878982244296003354537761156756250128978819786343685925022380381059493268035396025551079000562259140449492907925965465666919019916168950297945284793122536168118155456872880377240661687897160199941904138240.00000000
0.98500000, 0.00500000, 7851726722195752582370587535286354942194586265776986734977329488263028761872054845652496289806017092792106532016050350096616258577963444552825229918074855309817044273240260347111244863278339029814588820742307330392064.00000000
0.99500000, 0.00500000, -9056235708199298288776339407109573575344772639199835424419484961935867386441774517613687216429793148836232808063833125260010402845624685517442561628297933179710679283417899999957713405038215206278146262381565935878144.00000000
0.00500000, 0.01500000, -11220608419947600658469359105779721891068232523422740406121091770788627326103298286594913649729864757538571971296181917920566110437521550100199319910655259442525641782543829795132515770468889131315413297718156373000192.00000000
0.01500000, 0.01500000, 11625149186262538821309958724908466292888120759646621476486051949544534519747206740299559477757407554080423980155655472728930071314786263555430852567875508493740646270538312430093248429382092167834913227843496077950976.00000000
0.02500000, 0.01500000, -10909408904314368064007131950433340953422704490130086433077695396769432627162829584566366141257370406295232472456577253440856345124507788674949030060010024616765827148141240589361521510029429118512019542949626820689920.00000000
0.03500000, 0.01500000, 10297696083678152131821616918639080980743845988088484619236310405355220711370554394272845524901389466020830117384665932686493680079230590613034892133392108131879922859618906025888460032459579132366713769459634740920320.00000000
0.04500000, 0.01500000, -10216587960605842841200976783737835281541311199078209245762168949156037704404189759386031719168551100232027720507153685416600711611780476325916401033678839265799152817649283597876715011282844061861544851709374222041088.00000000
0.05500000, 0.01500000, 9813937258632450462436637550636939176918067796804845081221550658861749158675997909156274894114696725913067113258543320839653265081252220949975793530854001137384269366709186999980134202843611924265713921232533635203072.00000000
0.06500000, 0.01500000, -9332679684560242913851997129710647717757948814580098464316199019607079957798774869343781067966302348934749419130713608457985429682185361900792745910384879578462080508717664855458019670911976603469342163819093748088832.00000000
0.07500000, 0.01500000, 8787082537869362858615787530733597467222888803036731475278995695085008900813960893340861146401835602457751058117253598495706193886932091638827215589791523082580478993791320074147021734710776277254602799669642302324736.00000000
0.08500000, 0.01500000, -8275088111898641014361015745762194814868124076947195130467571297945121282084179095365295009864251849327639402743941428038841398834974031151404098021733868795735057232160410798695228032523790084376946419046983730724864.00000000
0.09500000, 0.01500000, 7824949760108026571996132981337877113486849782641861282388922745483074279734015678198570151134092261201244110834470997545446162213857059747126569457723874689315261721560554238745796837783897249196182713970977727840256.00000000
0.10500000, 0.01500000, -7395781574060878828462543999356406881765306084250678712212042957583924133489126564271410919348099188563166858207354608348664719869753519858708668653425446632029557712668194115093216791932928943195633588671080032108544.00000000
0.11500000, 0.01500000, 6974100186908023549793402879358233725424143095931450367317236411129298150984746571640715556695685698252378953382268722572200409834949661763722765676869112030947486665495006306616107814848015347927580963223161976913920.00000000
0.12500000, 0.01500000, -6581684792649518981481810625247286517184292467724107586247062323891398377176232894427713758969035304048133590616547742933359017179220107971554487126338928524052604101638070946024734685427008507971597073765854464704512.00000000
0.13500000, 0.01500000, 6239493873418208346896736273287865547156310524079590915499460133649542800720740469084319944337202984804638807434552609880689999994346555759732446540837880177689927630201317163504336187991144097233526151660441396314112.00000000
0.14500000, 0.01500000, -5966183290372907330162913314846452734303436539219334728895078781691961771007370415748747058055416545295765107943078090681624760517001356306554439945301818836469488406048650705164324067699299759050653156037134601158656.00000000
0.15500000, 0.01500000, 5767364765811264795681408679714441029510996269142805069145317673792461542894863541791268183268992630108597215578909981495819233480038408472773845804586017696739112676434846243800020509649672271093450357214720083099648.00000000
0.16500000, 0.01500000, -5664524151412616656531028234582293922921732492529714742829667457620363914804404966007174933371710740117500378795106461101684552065227187033093449354036243954338527423810940155308710317936978274017080654075790385741824.00000000
0.17500000, 0.01500000, 5658306274345683545658240729992809100723665319266967136008723211486089704846937548478350687497485660012729300392746070042281831109436363793879210180765342828437582540836991005076686400709498006664142409760287064326144.00000000