TITLE = "Linear advection equation"
VARIABLES = "x", "y", "sol"
ZONE STRANDID=1, SOLUTIONTIME=0.45, I=100, J=100, DATAPACKING=POINT
0.00500000, 0.00500000, 10888036064639209472.00000000
0.01500000, 0.00500000, -12230034255254859776.00000000
0.02500000, 0.00500000, 11004936435360636928.00000000
0.03500000, 0.00500000, -12960885409490595840.00000000
0.04500000, 0.00500000, 14254299221617659904.00000000
0.05500000, 0.00500000, -14011496764936060928.00000000
0.06500000, 0.00500000, 12197569009837094912.00000000
0.07500000, 0.00500000, -10440507925600737280.00000000
0.08500000, 0.00500000, 8278116205759842304.00000000
0.09500000, 0.00500000, -5748081925543512064.00000000
0.10500000, 0.00500000, 3803094928986062848.00000000
0.11500000, 0.00500000, -2797897829329497088.00000000
0.12500000, 0.00500000, 2394947503413592064.00000000
0.13500000, 0.00500000, -1987781390763296256.00000000
0.14500000, 0.00500000, 1438916025426741248.00000000
0.15500000, 0.00500000, -816757674846621952.00000000
0.16500000, 0.00500000, 140182317264888816.00000000
0.17500000, 0.00500000, 569510429018521664.00000000
0.18500000, 0.00500000, -1227960858739547136.00000000
0.19500000, 0.00500000, 1785410902829117184.00000000
0.20500000, 0.00500000, -2254603059496857088.00000000
0.21500000, 0.00500000, 2657160256857446400.00000000
0.22500000, 0.00500000, -3023941995615767552.00000000
0.23500000, 0.00500000, 3366740461670593536.00000000
0.24500000, 0.00500000, -3634691396787911168.00000000
0.25500000, 0.00500000, 3678619621989001216.00000000
0.26500000, 0.00500000, -3260439401762020352.00000000
0.27500000, 0.00500000, 2141022441272671232.00000000
0.28500000, 0.00500000, -252056578025972000.00000000
0.29500000, 0.00500000, -2158815167185338880.00000000
0.30500000, 0.00500000, 4610356037012751360.00000000
0.31500000, 0.00500000, -6620488292545652736.00000000
0.32500000, 0.00500000, 7850769276081371136.00000000
0.33500000, 0.00500000, -8112226691010850816.00000000
0.34500000, 0.00500000, 7556478895639933952.00000000
0.35500000, 0.00500000, -6536763837436093440.00000000
0.36500000, 0.00500000, 5369790785574203392.00000000
0.37500000, 0.00500000, -4276555284730032640.00000000
0.38500000, 0.00500000, 3427213858856391168.00000000
0.39500000, 0.00500000, -2960774980582844416.00000000
0.40500000, 0.00500000, 2980649894404122624.00000000
0.41500000, 0.00500000, -3518077427953975296.00000000
0.42500000, 0.00500000, 4476445098110408192.00000000
0.43500000, 0.00500000, -5594345437976078336.00000000
0.44500000, 0.00500000, 6577443603379154944.00000000
0.45500000, 0.00500000, -7323989121828574208.00000000
0.46500000, 0.00500000, 7798404923977151488.00000000
0.47500000, 0.00500000, -7740659568914325504.00000000
0.48500000, 0.00500000, 6796375639379546112.00000000
0.49500000, 0.00500000, -4802011799083255808.00000000
0.50500000, 0.00500000, 1850514645063959552.00000000
0.51500000, 0.00500000, 1651686690318944768.00000000
0.52500000, 0.00500000, -4961767202035960832.00000000
0.53500000, 0.00500000, 7238677408108073984.00000000
0.54500000, 0.00500000, -7942871520499246080.00000000
0.55500000, 0.00500000, 7122322873399011328.00000000
0.56500000, 0.00500000, -5382464968378628096.00000000
0.57500000, 0.00500000, 3550255068938049536.00000000
0.58500000, 0.00500000, -2250031807814446080.00000000
0.59500000, 0.00500000, 1658535434653028864.00000000
0.60500000, 0.00500000, -1551118998364922368.00000000
0.61500000, 0.00500000, 1544470508409161216.00000000
0.62500000, 0.00500000, -1351095579113848320.00000000
0.63500000, 0.00500000, 905729835552770560.00000000
0.64500000, 0.00500000, -333480383756365952.00000000
0.65500000, 0.00500000, -184372701613551744.00000000
0.66500000, 0.00500000, 557948139471017728.00000000
0.67500000, 0.00500000, -856493854099349120.00000000
0.68500000, 0.00500000, 1256343805078330368.00000000
0.69500000, 0.00500000, -1910748096084520704.00000000
0.70500000, 0.00500000, 2668097711777747968.00000000
0.71500000, 0.00500000, -3484166742196749824.00000000
0.72500000, 0.00500000, 4297937495154685952.00000000
0.73500000, 0.00500000, -4350242377413721088.00000000
0.74500000, 0.00500000, 3096414092099891200.00000000
0.75500000, 0.00500000, -494380317181658752.00000000
0.76500000, 0.00500000, -3382974519865099776.00000000
0.77500000, 0.00500000, 8214278434047428608.00000000
0.78500000, 0.00500000, -13573571040527032320.00000000
0.79500000, 0.00500000, 19041133629254361088.00000000
0.80500000, 0.00500000, -23104557215069175808.00000000
0.81500000, 0.00500000, 27009757276056068096.00000000
0.82500000, 0.00500000, -32782920754120265728.00000000
0.83500000, 0.00500000, 36516386293917896704.00000000
0.84500000, 0.00500000, -35522610759813971968.00000000
0.85500000, 0.00500000, 30817390483915796480.00000000
0.86500000, 0.00500000, -23998919448748580864.00000000
0.87500000, 0.00500000, 17186528483286304768.00000000
0.88500000, 0.00500000, -11616229072601403392.00000000
0.89500000, 0.00500000, 8261969468296937472.00000000
0.90500000, 0.00500000, -7902989281016305664.00000000
0.91500000, 0.00500000, 8444157138437070848.00000000
0.92500000, 0.00500000, -10030202701481424896.00000000
0.93500000, 0.00500000, 16262292076025139200.00000000
0.94500000, 0.00500000, -21479141299050192896.00000000
0.95500000, 0.00500000, 20960926813175902208.00000000
0.96500000, 0.00500000, -16809462141272111104.00000000
0.97500000, 0.00500000, 9712968151411798016.00000000
0.98500000, 0.00500000, -2098385745248541696.00000000
0.99500000, 0.00500000, -5465900428579279872.00000000
0.00500000, 0.01500000, -11806914620967077888.00000000
0.01500000, 0.01500000, 12880578971029164032.00000000
0.02500000, 0.01500000, -13338952486890579968.00000000
0.03500000, 0.01500000, 14257376378917253120.00000000
0.04500000, 0.01500000, -15049052039858139136.00000000
0.05500000, 0.01500000, 13935874708632289280.00000000
0.06500000, 0.01500000, -12183726491096608768.00000000
0.07500000, 0.01500000, 10170134001995522048.00000000
0.08500000, 0.01500000, -7593942965732417536.00000000
0.09500000, 0.01500000, 5415860313480841216.00000000
0.10500000, 0.01500000, -3982918006020028416.00000000
0.11500000, 0.01500000, 3288169873495583232.00000000
0.12500000, 0.01500000, -2761919874215153664.00000000
0.13500000, 0.01500000, 2116305219363031552.00000000
0.14500000, 0.01500000, -1360485162932280320.00000000
0.15500000, 0.01500000, 532827753335981824.00000000
0.16500000, 0.01500000, 331403507364338560.00000000
0.17500000, 0.01500000, -1161602965355687424.00000000
0.18500000, 0.01500000, 1868462242431952896.00000000
0.19500000, 0.01500000, -2436571011927294976.00000000
0.20500000, 0.01500000, 2873388362742937088.00000000
0.21500000, 0.01500000, -3230439276821828096.00000000
0.22500000, 0.01500000, 3583574874213438976.00000000
0.23500000, 0.01500000, -3986565359105790464.00000000
0.24500000, 0.01500000, 4413884840920362496.00000000
0.25500000, 0.01500000, -4715099280055166976.00000000
0.26500000, 0.01500000, 4622009929851931648.00000000
0.27500000, 0.01500000, -3865128914851569152.00000000
0.28500000, 0.01500000, 2386778526849632256.00000000
0.29500000, 0.01500000, -464364042281756800.00000000
0.30500000, 0.01500000, -1437576695018924032.00000000
0.31500000, 0.01500000, 2903974447494094848.00000000
0.32500000, 0.01500000, -3691441587634916352.00000000
0.33500000, 0.01500000, 3837770494028118528.00000000
0.34500000, 0.01500000, -3628822228977494016.00000000
0.35500000, 0.01500000, 3321004686788274176.00000000
0.36500000, 0.01500000, -2992231343274285568.00000000
0.37500000, 0.01500000, 2649567585565295104.00000000
0.38500000, 0.01500000, -2353434518929893376.00000000
0.39500000, 0.01500000, 2239001983275431168.00000000
0.40500000, 0.01500000, -2441378340544730112.00000000
0.41500000, 0.01500000, 2999194195158771712.00000000
0.42500000, 0.01500000, -3789600677136868864.00000000
0.43500000, 0.01500000, 4548429715366686208.00000000
0.44500000, 0.01500000, -5098614102544865280.00000000
0.45500000, 0.01500000, 5474712349449555968.00000000
0.46500000, 0.01500000, -5612519462093616128.00000000
0.47500000, 0.01500000, 5212279731895429120.00000000
0.48500000, 0.01500000, -4021060877473541632.00000000
0.49500000, 0.01500000, 1960089323048938496.00000000
0.50500000, 0.01500000, 835028109973800320.00000000
0.51500000, 0.01500000, -3871752630197901312.00000000
0.52500000, 0.01500000, 6375169699165386752.00000000
0.53500000, 0.01500000, -7642625293474055168.00000000
0.54500000, 0.01500000, 7418872981276416000.00000000
0.55500000, 0.01500000, -6037612667528179712.00000000
0.56500000, 0.01500000, 4221048645834009088.00000000
0.57500000, 0.01500000, -2666858812993369600.00000000
0.58500000, 0.01500000, 1715175839580049408.00000000
0.59500000, 0.01500000, -1295288388143873280.00000000
0.60500000, 0.01500000, 1106915945040495744.00000000
0.61500000, 0.01500000, -863138480114638464.00000000
0.62500000, 0.01500000, 450026901240617792.00000000
0.63500000, 0.01500000, 56024921318447680.00000000
0.64500000, 0.01500000, -486657967813544960.00000000
0.65500000, 0.01500000, 721926375174799232.00000000
0.66500000, 0.01500000, -787108868300415488.00000000
0.67500000, 0.01500000, 845377151434466816.00000000
0.68500000, 0.01500000, -1093131857994206976.00000000
0.69500000, 0.01500000, 1624528321638999808.00000000
0.70500000, 0.01500000, -2191151971098283520.00000000
0.71500000, 0.01500000, 2831340039763048960.00000000
0.72500000, 0.01500000, -3167678604856939520.00000000
0.73500000, 0.01500000, 2512581131595474944.00000000
0.74500000, 0.01500000, -760579566291711488.00000000
0.75500000, 0.01500000, -2130761447979185152.00000000
0.76500000, 0.01500000, 5944438635771625472.00000000
0.77500000, 0.01500000, -10249883088636440576.00000000
0.78500000, 0.01500000, 14598885516605374464.00000000
0.79500000, 0.01500000, -18420645015465644032.00000000
0.80500000, 0.01500000, 20536048374132924416.00000000
0.81500000, 0.01500000, -24494284754682642432.00000000
0.82500000, 0.01500000, 29488861302316597248.00000000
0.83500000, 0.01500000, -30593785516456370176.00000000
0.84500000, 0.01500000, 27590761902957694976.00000000
0.85500000, 0.01500000, -21385207532030930944.00000000
0.86500000, 0.01500000, 13964910566184833024.00000000
0.87500000, 0.01500000, -9340773473639426048.00000000
0.88500000, 0.01500000, 7312731326577119232.00000000
0.89500000, 0.01500000, -6125218047890221056.00000000
0.90500000, 0.01500000, 7120405491664427008.00000000
0.91500000, 0.01500000, -6700243960414003200.00000000
0.92500000, 0.01500000, 10732489719036350464.00000000
0.93500000, 0.01500000, -18713512342781349888.00000000
0.94500000, 0.01500000, 19744888774062628864.00000000
0.95500000, 0.01500000, -17731149545099812864.00000000
0.96500000, 0.01500000, 12525196828943749120.00000000
0.97500000, 0.01500000, -5239792937298556928.00000000
0.98500000, 0.01500000, -1567139134264107008.00000000
0.99500000, 0.01500000, 8430871246300551168.00000000
0.00500000, 0.02500000, 11845319443113029632.00000000
0.01500000, 0.02500000, -12756505295755896832.00000000
0.02500000, 0.02500000, 13209306468332433408.00000000
0.03500000, 0.02500000, -13907697227168292864.00000000
0.04500000, 0.02500000, 13965755188592644096.00000000
0.05500000, 0.02500000, -12849791127170117632.00000000
0.06500000, 0.02500000, 11132389449838256128.00000000
0.07500000, 0.02500000, -8863354067511414784.00000000
0.08500000, 0.02500000, 6842672315116843008.00000000
0.09500000, 0.02500000, -5359290273237919744.00000000
0.10500000, 0.02500000, 4430196729617851904.00000000
0.11500000, 0.02500000, -3743479477125830144.00000000
0.12500000, 0.02500000, 3006900343079201792.00000000
0.13500000, 0.02500000, -2149359970897597696.00000000
0.14500000, 0.02500000, 1190911141975762944.00000000
0.15500000, 0.02500000, -216413148076623648.00000000
0.16500000, 0.02500000, -708737111916524032.00000000
0.17500000, 0.02500000, 1509941127835354624.00000000
0.18500000, 0.02500000, -2160468649139171328.00000000
0.19500000, 0.02500000, 2660446945910987776.00000000
0.20500000, 0.02500000, -3055841025125628928.00000000
0.21500000, 0.02500000, 3437693328452664320.00000000
0.22500000, 0.02500000, -3913266864678704640.00000000
0.23500000, 0.02500000, 4555419506950164480.00000000
0.24500000, 0.02500000, -5337756943908560896.00000000
0.25500000, 0.02500000, 6075894882811015168.00000000
0.26500000, 0.02500000, -6446005884447477760.00000000
0.27500000, 0.02500000, 6147092119521291264.00000000
0.28500000, 0.02500000, -5134289751490621440.00000000
0.29500000, 0.02500000, 3688895092925214720.00000000
0.30500000, 0.02500000, -2227331599612882688.00000000
0.31500000, 0.02500000, 1068286288471342336.00000000
0.32500000, 0.02500000, -293326323986644352.00000000
0.33500000, 0.02500000, -261255810331743584.00000000
0.34500000, 0.02500000, 781057524548238080.00000000
0.35500000, 0.02500000, -1259492177700213248.00000000
0.36500000, 0.02500000, 1568677240381759488.00000000
0.37500000, 0.02500000, -1651270311856399872.00000000
0.38500000, 0.02500000, 1606897915332368640.00000000
0.39500000, 0.02500000, -1627689257484881408.00000000
0.40500000, 0.02500000, 1862054898085463552.00000000
0.41500000, 0.02500000, -2325930038687816704.00000000
0.42500000, 0.02500000, 2885813861525017600.00000000
0.43500000, 0.02500000, -3346619540963459072.00000000
0.44500000, 0.02500000, 3647243330338173440.00000000
0.45500000, 0.02500000, -3816097750047417344.00000000
0.46500000, 0.02500000, 3724275177183610368.00000000
0.47500000, 0.02500000, -3144415699106262016.00000000
0.48500000, 0.02500000, 1903536976695053824.00000000
0.49500000, 0.02500000, 67880141907732480.00000000
0.50500000, 0.02500000, -2561706216034154496.00000000
0.51500000, 0.02500000, 5009642522793857024.00000000
0.52500000, 0.02500000, -6706581206335008768.00000000
0.53500000, 0.02500000, 7178093714582117376.00000000
0.54500000, 0.02500000, -6441102817173747712.00000000
0.55500000, 0.02500000, 4972956624387985408.00000000
0.56500000, 0.02500000, -3399317397961759232.00000000
0.57500000, 0.02500000, 2140088320406876416.00000000
0.58500000, 0.02500000, -1275689234177270784.00000000
0.59500000, 0.02500000, 657404362471911040.00000000
0.60500000, 0.02500000, -102736829642207008.00000000
0.61500000, 0.02500000, -463244403476757888.00000000
0.62500000, 0.02500000, 977073406619843840.00000000
0.63500000, 0.02500000, -1304604564540717568.00000000
0.64500000, 0.02500000, 1349262218996429056.00000000
0.65500000, 0.02500000, -1136014837239128832.00000000
0.66500000, 0.02500000, 822504661395041664.00000000
0.67500000, 0.02500000, -624595224241941248.00000000
0.68500000, 0.02500000, 694348084855587840.00000000
0.69500000, 0.02500000, -1023711267708257536.00000000
0.70500000, 0.02500000, 1380154017403870208.00000000
0.71500000, 0.02500000, -1630473734788544512.00000000
0.72500000, 0.02500000, 1310857259065702144.00000000
0.73500000, 0.02500000, -228588248356555648.00000000
0.74500000, 0.02500000, -1715114967166138624.00000000
0.75500000, 0.02500000, 4396504972842221056.00000000
0.76500000, 0.02500000, -7489190031056818176.00000000
0.77500000, 0.02500000, 10555047952412758016.00000000
0.78500000, 0.02500000, -13344082180762480640.00000000
0.79500000, 0.02500000, 15266313660116877312.00000000
0.80500000, 0.02500000, -16701577943076384768.00000000
0.81500000, 0.02500000, 20184359120989093888.00000000
0.82500000, 0.02500000, -22342155071628378112.00000000
0.83500000, 0.02500000, 21889033154064220160.00000000
0.84500000, 0.02500000, -18311261857786527744.00000000
0.85500000, 0.02500000, 12995751588209090560.00000000
0.86500000, 0.02500000, -5514966638161410048.00000000
0.87500000, 0.02500000, 5371947675296980992.00000000
0.88500000, 0.02500000, -4626852601431000064.00000000
0.89500000, 0.02500000, 5117378587845640192.00000000
0.90500000, 0.02500000, -6745677066444236800.00000000
0.91500000, 0.02500000, 7613370852272047104.00000000
0.92500000, 0.02500000, -13761930363438219264.00000000
0.93500000, 0.02500000, 16675772179532718080.00000000
0.94500000, 0.02500000, -16214213448805969920.00000000
0.95500000, 0.02500000, 13044728605030592512.00000000
0.96500000, 0.02500000, -7371242644067460096.00000000
0.97500000, 0.02500000, 787174330686338304.00000000
0.98500000, 0.02500000, 5168795542555686912.00000000
0.99500000, 0.02500000, -9589884726378110976.00000000
0.00500000, 0.03500000, -10558606174022160384.00000000
0.01500000, 0.03500000, 11022292514984724480.00000000
0.02500000, 0.03500000, -11525334586055268352.00000000
0.03500000, 0.03500000, 11960261236329230336.00000000
0.04500000, 0.03500000, -11772964895885131776.00000000
0.05500000, 0.03500000, 10745172078335631360.00000000
0.06500000, 0.03500000, -9158545292649172992.00000000
0.07500000, 0.03500000, 7541219835906926592.00000000
0.08500000, 0.03500000, -6283033484121229312.00000000
0.09500000, 0.03500000, 5409773610302540800.00000000
0.10500000, 0.03500000, -4705199717676472320.00000000
0.11500000, 0.03500000, 3943623278368875520.00000000
0.12500000, 0.03500000, -3024490693304009216.00000000
0.13500000, 0.03500000, 1979204215565351424.00000000
0.14500000, 0.03500000, -908754331751725440.00000000
0.15500000, 0.03500000, -86278038461284096.00000000
0.16500000, 0.03500000, 945295307356710144.00000000
0.17500000, 0.03500000, -1647985378175685120.00000000
0.18500000, 0.03500000, 2202055471734625536.00000000
0.19500000, 0.03500000, -2646169131231255040.00000000
0.20500000, 0.03500000, 3059265654780372480.00000000
0.21500000, 0.03500000, -3552838189294340608.00000000
0.22500000, 0.03500000, 4243008743729065472.00000000
0.23500000, 0.03500000, -5201417911558115328.00000000
0.24500000, 0.03500000, 6376319629492236288.00000000
0.25500000, 0.03500000, -7525920353509177344.00000000
0.26500000, 0.03500000, 8270951977391916032.00000000
0.27500000, 0.03500000, -8304626151938973696.00000000
0.28500000, 0.03500000, 7610767231223298048.00000000
0.29500000, 0.03500000, -6463584118432658432.00000000
0.30500000, 0.03500000, 5207645206488475648.00000000
0.31500000, 0.03500000, -4037962457714848768.00000000
0.32500000, 0.03500000, 2929305741195771904.00000000
0.33500000, 0.03500000, -1781258881301915136.00000000
0.34500000, 0.03500000, 640591969910842880.00000000
0.35500000, 0.03500000, 290663119178475904.00000000
0.36500000, 0.03500000, -845025954756403456.00000000
0.37500000, 0.03500000, 1038479296262057728.00000000
0.38500000, 0.03500000, -1053955264459127808.00000000
0.39500000, 0.03500000, 1104106417758805760.00000000
0.40500000, 0.03500000, -1304021539524659712.00000000
0.41500000, 0.03500000, 1635723574800215552.00000000
0.42500000, 0.03500000, -1986555495737394176.00000000
0.43500000, 0.03500000, 2251601195520343040.00000000
0.44500000, 0.03500000, -2420817447755930624.00000000
0.45500000, 0.03500000, 2475717585615047168.00000000
0.46500000, 0.03500000, -2290171587640130304.00000000
0.47500000, 0.03500000, 1686158591981719296.00000000
0.48500000, 0.03500000, -492394092688751872.00000000
0.49500000, 0.03500000, -1305321766229400832.00000000
0.50500000, 0.03500000, 3398063759485948928.00000000
0.51500000, 0.03500000, -5220976886095536128.00000000
0.52500000, 0.03500000, 6232341862917304320.00000000
0.53500000, 0.03500000, -6207272730994043904.00000000
0.54500000, 0.03500000, 5337383573450356736.00000000
0.55500000, 0.03500000, -4059373365624810496.00000000
0.56500000, 0.03500000, 2750398066065482240.00000000
0.57500000, 0.03500000, -1556223854331721216.00000000
0.58500000, 0.03500000, 453156444267518400.00000000
0.59500000, 0.03500000, 594613428871293696.00000000
0.60500000, 0.03500000, -1535485458034628352.00000000
0.61500000, 0.03500000, 2233842902870520064.00000000
0.62500000, 0.03500000, -2547573524715635712.00000000
0.63500000, 0.03500000, 2416922416393046528.00000000
0.64500000, 0.03500000, -1912087278557885952.00000000
0.65500000, 0.03500000, 1222347963815080960.00000000
0.66500000, 0.03500000, -589451025728597888.00000000
0.67500000, 0.03500000, 204453637373413760.00000000
0.68500000, 0.03500000, -115781947083257920.00000000
0.69500000, 0.03500000, 206033000377671360.00000000
0.70500000, 0.03500000, -250161823418933728.00000000
0.71500000, 0.03500000, 6091456065341056.00000000
0.72500000, 0.03500000, 715048214715588224.00000000
0.73500000, 0.03500000, -1999743225944926208.00000000
0.74500000, 0.03500000, 3784572970289956864.00000000
0.75500000, 0.03500000, -5796392812708743168.00000000
0.76500000, 0.03500000, 7692949791098823680.00000000
0.77500000, 0.03500000, -9285010161063899136.00000000
0.78500000, 0.03500000, 10743685398855782400.00000000
0.79500000, 0.03500000, -11538174290563100672.00000000
0.80500000, 0.03500000, 12748765984816814080.00000000
0.81500000, 0.03500000, -14443569057256247296.00000000
0.82500000, 0.03500000, 14782886848276459520.00000000
0.83500000, 0.03500000, -13889227743766519808.00000000
0.84500000, 0.03500000, 10981179280740427776.00000000
0.85500000, 0.03500000, -7432247785900480512.00000000
0.86500000, 0.03500000, 4321397944433850368.00000000
0.87500000, 0.03500000, -3626118271121631232.00000000
0.88500000, 0.03500000, 3480815861650183680.00000000
0.89500000, 0.03500000, -4971892878587303936.00000000
0.90500000, 0.03500000, 7355347324552613888.00000000
0.91500000, 0.03500000, -8620846259422776320.00000000
0.92500000, 0.03500000, 12021016044672698368.00000000
0.93500000, 0.03500000, -13747143977244794880.00000000
0.94500000, 0.03500000, 12046336795311650816.00000000
0.95500000, 0.03500000, -7965921988036207616.00000000
0.96500000, 0.03500000, 2488287373816824320.00000000
0.97500000, 0.03500000, 2792372371020036096.00000000
0.98500000, 0.03500000, -6913590322722686976.00000000
0.99500000, 0.03500000, 9436558279272755200.00000000
0.00500000, 0.04500000, 8365060093620999168.00000000
0.01500000, 0.04500000, -8678034640150977536.00000000
0.02500000, 0.04500000, 9126049606164214784.00000000
0.03500000, 0.04500000, -9381448197879330816.00000000
0.04500000, 0.04500000, 9091668191998711808.00000000
0.05500000, 0.04500000, -8275183994232462336.00000000
0.06500000, 0.04500000, 7265347016171179008.00000000
0.07500000, 0.04500000, -6413813240764694528.00000000
0.08500000, 0.04500000, 5809644495508547584.00000000
0.09500000, 0.04500000, -5292347989440923648.00000000
0.10500000, 0.04500000, 4650546477376712704.00000000
0.11500000, 0.04500000, -3781447974589349376.00000000
0.12500000, 0.04500000, 2724589968134575616.00000000
0.13500000, 0.04500000, -1606632288136912384.00000000
0.14500000, 0.04500000, 560052312544571584.00000000
0.15500000, 0.04500000, 336630016150759168.00000000
0.16500000, 0.04500000, -1069207761525577984.00000000
0.17500000, 0.04500000, 1660548382244004864.00000000
0.18500000, 0.04500000, -2149599519855225856.00000000
0.19500000, 0.04500000, 2596049016346603520.00000000
0.20500000, 0.04500000, -3086663460402619392.00000000
0.21500000, 0.04500000, 3727629067500519424.00000000
0.22500000, 0.04500000, -4626279531411318784.00000000
0.23500000, 0.04500000, 5838124502764480512.00000000
0.24500000, 0.04500000, -7268001881834607616.00000000
0.25500000, 0.04500000, 8613833290841184256.00000000
0.26500000, 0.04500000, -9473100589692788736.00000000
0.27500000, 0.04500000, 9580379476870574080.00000000
0.28500000, 0.04500000, -8970973342040676352.00000000
0.29500000, 0.04500000, 7905726205567435776.00000000
0.30500000, 0.04500000, -6643524464415126528.00000000
0.31500000, 0.04500000, 5284669050418601984.00000000
0.32500000, 0.04500000, -3817112918884971008.00000000
0.33500000, 0.04500000, 2301064202693777408.00000000
0.34500000, 0.04500000, -947387044545470208.00000000
0.35500000, 0.04500000, -12596180239161184.00000000
0.36500000, 0.04500000, 501649991386733824.00000000
0.37500000, 0.04500000, -640933126053054720.00000000
0.38500000, 0.04500000, 646881515151801984.00000000
0.39500000, 0.04500000, -692766456803599104.00000000
0.40500000, 0.04500000, 838857279306976000.00000000
0.41500000, 0.04500000, -1048778917617040640.00000000
0.42500000, 0.04500000, 1250905826891216640.00000000
0.43500000, 0.04500000, -1406857158100113152.00000000
0.44500000, 0.04500000, 1516652659052095488.00000000
0.45500000, 0.04500000, -1538188742214386432.00000000
0.46500000, 0.04500000, 1347656036661627904.00000000
0.47500000, 0.04500000, -764734239879558912.00000000
0.48500000, 0.04500000, -342131278968142144.00000000
0.49500000, 0.04500000, 1884714568911012864.00000000
0.50500000, 0.04500000, -3503564713210591232.00000000
0.51500000, 0.04500000, 4724596625224699904.00000000
0.52500000, 0.04500000, -5217669100712855552.00000000
0.53500000, 0.04500000, 4958950726759427072.00000000
0.54500000, 0.04500000, -4175398999710008832.00000000
0.55500000, 0.04500000, 3121204606347572224.00000000
0.56500000, 0.04500000, -1904554788131733504.00000000
0.57500000, 0.04500000, 526105963473060736.00000000
0.58500000, 0.04500000, 963499355324638336.00000000
0.59500000, 0.04500000, -2375990955776759808.00000000
0.60500000, 0.04500000, 3434923335663514624.00000000
0.61500000, 0.04500000, -3907402170496161792.00000000
0.62500000, 0.04500000, 3719907007079909888.00000000
0.63500000, 0.04500000, -2988286101265777664.00000000
0.64500000, 0.04500000, 1964114575681928704.00000000
0.65500000, 0.04500000, -940857863370297984.00000000
0.66500000, 0.04500000, 153123556614443584.00000000
0.67500000, 0.04500000, 305799842485111680.00000000
0.68500000, 0.04500000, -511100475911166336.00000000
0.69500000, 0.04500000, 655831513750808064.00000000
0.70500000, 0.04500000, -953400904745083264.00000000
0.71500000, 0.04500000, 1555385710730960128.00000000
0.72500000, 0.04500000, -2512594813376417792.00000000
0.73500000, 0.04500000, 3758020853735373824.00000000
0.74500000, 0.04500000, -5105071544231416832.00000000
0.75500000, 0.04500000, 6210779141211591680.00000000
0.76500000, 0.04500000, -6910253279017488384.00000000
0.77500000, 0.04500000, 7424245983937031168.00000000
0.78500000, 0.04500000, -8075171538487836672.00000000
0.79500000, 0.04500000, 8376082599036829696.00000000
0.80500000, 0.04500000, -9190583317468893184.00000000
0.81500000, 0.04500000, 9764017038125735936.00000000
0.82500000, 0.04500000, -9519791903650201600.00000000
0.83500000, 0.04500000, 8398401836067814400.00000000
0.84500000, 0.04500000, -6177109169232494592.00000000
0.85500000, 0.04500000, 4290799237344666624.00000000
0.86500000, 0.04500000, -3058135545448176640.00000000
0.87500000, 0.04500000, 2573335269513776128.00000000
0.88500000, 0.04500000, -3349167627553396736.00000000
0.89500000, 0.04500000, 5282973636298326016.00000000
0.90500000, 0.04500000, -7875262571972458496.00000000
0.91500000, 0.04500000, 8918188355336372224.00000000
0.92500000, 0.04500000, -11228451025623314432.00000000
0.93500000, 0.04500000, 10372208664144449536.00000000
0.94500000, 0.04500000, -7578927210620497920.00000000
0.95500000, 0.04500000, 3249724664228272128.00000000
0.96500000, 0.04500000, 1257151623479379200.00000000
0.97500000, 0.04500000, -4840684714595479552.00000000
0.98500000, 0.04500000, 7029739411590959104.00000000
0.99500000, 0.04500000, -8017681521439429632.00000000
0.00500000, 0.05500000, -6036772921044407296.00000000
0.01500000, 0.05500000, 6280690706849775616.00000000
0.02500000, 0.05500000, -6610793119437492224.00000000
0.03500000, 0.05500000, 6726628246949030912.00000000
0.04500000, 0.05500000, -6483348218976115712.00000000
0.05500000, 0.05500000, 6024293446835955712.00000000
0.06500000, 0.05500000, -5614198040242604032.00000000
0.07500000, 0.05500000, 5369993324481008640.00000000
0.08500000, 0.05500000, -5176560849631943680.00000000
0.09500000, 0.05500000, 4821723515360747520.00000000
0.10500000, 0.05500000, -4171470221776103936.00000000
0.11500000, 0.05500000, 3243690287645544448.00000000
0.12500000, 0.05500000, -2173495650552685056.00000000
0.13500000, 0.05500000, 1127324353827266560.00000000
0.14500000, 0.05500000, -220435090296291904.00000000
0.15500000, 0.05500000, -495617408650532800.00000000
0.16500000, 0.05500000, 1078687413384496384.00000000
0.17500000, 0.05500000, -1624631715062109184.00000000
0.18500000, 0.05500000, 2131615977448374528.00000000
0.19500000, 0.05500000, -2628707696625679360.00000000
0.20500000, 0.05500000, 3206300411863337472.00000000
0.21500000, 0.05500000, -3949120551962782208.00000000
0.22500000, 0.05500000, 4951030374496000000.00000000
0.23500000, 0.05500000, -6242298935936076800.00000000
0.24500000, 0.05500000, 7676487750279105536.00000000
0.25500000, 0.05500000, -8915365814515326976.00000000
0.26500000, 0.05500000, 9591088080081240064.00000000
0.27500000, 0.05500000, -9529342490502027264.00000000
0.28500000, 0.05500000, 8828122816764404736.00000000
0.29500000, 0.05500000, -7724053219241138176.00000000
0.30500000, 0.05500000, 6398460024963997696.00000000
0.31500000, 0.05500000, -4918887571124676608.00000000
0.32500000, 0.05500000, 3349386680597301248.00000000
0.33500000, 0.05500000, -1862149882518116352.00000000
0.34500000, 0.05500000, 689922071841126400.00000000
0.35500000, 0.05500000, 25964391617267400.00000000
0.36500000, 0.05500000, -325259084110278272.00000000
0.37500000, 0.05500000, 379576111582972864.00000000
0.38500000, 0.05500000, -371307617776592192.00000000
0.39500000, 0.05500000, 406280621681133440.00000000
0.40500000, 0.05500000, -501298594904654912.00000000
0.41500000, 0.05500000, 623196858040735872.00000000
0.42500000, 0.05500000, -740004624792604928.00000000
0.43500000, 0.05500000, 847417680640536576.00000000
0.44500000, 0.05500000, -940970719477245696.00000000
0.45500000, 0.05500000, 960628011193365248.00000000
0.46500000, 0.05500000, -772188554599145728.00000000
0.47500000, 0.05500000, 220426708470074912.00000000
0.48500000, 0.05500000, 740583662376739840.00000000
0.49500000, 0.05500000, -1942083021383459584.00000000
0.50500000, 0.05500000, 3045377455716390912.00000000
0.51500000, 0.05500000, -3729441388301907968.00000000
0.52500000, 0.05500000, 3867323686194271232.00000000
0.53500000, 0.05500000, -3542845498676710400.00000000
0.54500000, 0.05500000, 2895767882739735040.00000000
0.55500000, 0.05500000, -1955594128227383296.00000000
0.56500000, 0.05500000, 656528790615589248.00000000
0.57500000, 0.05500000, 984062227744214912.00000000