TITLE = "Linear advection equation"
VARIABLES = "x", "y", "sol"
ZONE STRANDID=1, SOLUTIONTIME=5.15, I=100, J=100, DATAPACKING=POINT
0.00500000, 0.00500000, 271737180021154882123495652091331406830342093619749791967340625088740814755481290530093749427259230740157891814596947624146499192588031101277195174005144423862540076385278771207073570218152861762637846279327791597504214397063248433849040896.00000000
0.01500000, 0.00500000, -239065335127125695181091922805307494526922091059725708806161273770172588779431994650415078519334424856813050422804718524323469904404944658590497306741087290422357211547659299207260220010796154042563346270892412554035727231038750048189939712.00000000
0.02500000, 0.00500000, 198296498068914662550051948623809835538603584383989960759879679684502678745462155237536952762066332896399865482388630788271197381115553694987219839920794107044174504677600058814948030104255469922377626520733976492186029042052533778521260032.00000000
0.03500000, 0.00500000, -161733164317109024754334612546311501998517302296369033781121678536255208875054417351781984361526594877760559373772250801839823047878977057945948753739438624386078475469181643082212609387676564860009939385791475246688274290148708336588029952.00000000
0.04500000, 0.00500000, 137513103078531540732984410799719084413296198364954510397609732821389203374540160197992568881353756996353809221438083156582221708674458257242134888196573877198333549671720808726833837482058562212921595220594569222508719104627776947736281088.00000000
0.05500000, 0.00500000, -119465026385554661427201132711121961066198289520244010453379114951676446696236188559426705383899426657582597666131809506349722923230979434153288800568149004513837540709155332164776577927910939267919933674029594104598412084800471385669369856.00000000
0.06500000, 0.00500000, 103451798023500082247427137861192642687336662333336661102247999631829406108350265534491380537601514787646883390546341313298309504275327937932798493355208696734029692342396116080330671467584488232085995927091530822145404548283453044173045760.00000000
0.07500000, 0.00500000, -89112900353355205832126972475619493249936936591949633714217267616106768403498948600279259451880413028156308792614383399380266322719758611552044317659131523633859039330524692026550042964935166100506164945579725055330690627247982952075755520.00000000
0.08500000, 0.00500000, 81230640304198924106710916498202560039422003933238246413384426257218961040600110445463544055937791037375833223093481619244727530629327138052516781812778473072212155443475984560460824004237300242496914374118657969323582416494079505678204928.00000000
0.09500000, 0.00500000, -81578262927528550165544904066846201219716034636062265238163025918130002554135441136635740530745670308269957754859155005067292303270775073719764865926414217989865927181941457566449104134789312778143084910014129847985701960308489081298354176.00000000
0.10500000, 0.00500000, 90265838734086816761542181696544458641827938279838134876319811218672041201081030561190609152647248629950936640484861180245941425508664089222165499746161116849060679931678697684008585528170032286444905302042487534214744325749868618988912640.00000000
0.11500000, 0.00500000, -109421425161609850566490543782593441682929055684044122180990677196005613693435580809552207413371653913664237353090400430031976832753179526463185032602807406801865375711405394465125275415832499963324805799438043136135167930480227877293916160.00000000
0.12500000, 0.00500000, 142742735069408490959246048228530650871438881792893828326144246757219244018164291793153311710619824836918089409439889751394050621617260305623520044798749341491954759534999174114075577216425488251896288496121247503805824160293904053476261888.00000000
0.13500000, 0.00500000, -194347150021920062937819736292564346600638186946834254186298316172779927411266657618993524159016820099679182504380923968962274070270805560219115761905266177731039782860239400038265587650610461256179564887373226888009345096782632970629414912.00000000
0.14500000, 0.00500000, 268496189732916396258977945854035022626598404276196420367729870725045643257021489636756638430753522616587194599664080860085750378375825542129115863810184536557354363568417838860092188055307247910556454260735848088533836809651345736423440384.00000000
0.15500000, 0.00500000, -369139926184267722370659452418474338018956477479828383362615497809187676500146384665947173263923685397847812929638850819523468020637308379064065535904261700563548733560389774122612628215336099510282453663198802942357458588433510305789640704.00000000
0.16500000, 0.00500000, 501406842756763498574812601923293231599215325288900336471127376157960486295317315008415683768515748129964724476565822178359127696393852681572171702806620399439402296564512478983016470399607944790256093499593952582314392864640789635361931264.00000000
0.17500000, 0.00500000, -673574203957365566476486708789975631051250670542021519311797454842759140223508595304145039052363561876065743123902127723026668045694858776137475208960052242213581127638842029825610270178666331923834210407483368524153972102094063666125078528.00000000
0.18500000, 0.00500000, 904151144175187750074634709618888212360656695141659909661244545635416369400894251785697417721192507408968820335087414278145367941177898028828405258173848891977974082302127200665234573880242645707756832889498441719951136191409911656859303936.00000000
0.19500000, 0.00500000, -1219042783482510425737268069117022200802637068820787696018674723561136713113782275610701850130785887853066525578780887250814350793738600383274090448307852255838688018729849368822291732404366389700079180472751693434862933668575740263686733824.00000000
0.20500000, 0.00500000, 1644086611143120140487562400360040005236151755292596283330674170395813948371926454142755743414685631717561390277698221742874752097573965555225382713800861365172978248438498151778216036203315750061012618491887563129089873103719355640683954176.00000000
0.21500000, 0.00500000, -2221065134091514592641616170496966561156183181664063104745229030564135228197821140848331181968429250668734809839880775514138358792658116590751067759687602414731517674596268963989299172210957861531566136060624427270647489677726708229151391744.00000000
0.22500000, 0.00500000, 3002992570266824262424308926810768003363411726541392751262223123182209335797257880429729917170271877619350368894404343663504866811847163914124874204155439018787729111707375821046630857534702278705737011868655252757089183459431942922759569408.00000000
0.23500000, 0.00500000, -4020628270113291632212700056927629565742405570764423020655091275967841162663294355775722170719636265142976478032477264935745688334714872000280590097042525749654411653363314687491552501658534358198346885333033155119445340396656998320909058048.00000000
0.24500000, 0.00500000, 5000359868823714961312351635050209350952018694669352565336707287676693879221780756280924914059934506391378406654915307331098285760639690117687262126878382737917425779824496824962714419012090572580498169488996716370334815632111198458387365888.00000000
0.25500000, 0.00500000, -6465707396879222602313049731675721830841019023209230649073716945163910868131384311438421740540740467207952084771659766923566342752499185411161602070550628940749729485552210102188906293557159444953896620513987993523047158977461665072534257664.00000000
0.26500000, 0.00500000, 8433611765739505634139450382928697864344933262912606985098655247202585530808920884094850257357315813597753600687632636467503432988679877440252008248467468251220827432728272821248800056903718018653984097548108239270066435729599562612998144000.00000000
0.27500000, 0.00500000, -10421657075863601484257575410163334478399858119589586226013321692010849039767796182899194246263823318355035514920853274856922347532305536537170971672043265797061661559159646764902049264399206491741264396230899208104878711366928940037933367296.00000000
0.28500000, 0.00500000, 12765085443330940033759929291835427672331495121265567851335025811163283336308719584653418081494961267319228368059570996754270268331295379324630272069475166886254379123295093206629583612105922575211099186432713799800264813666774991731765018624.00000000
0.29500000, 0.00500000, -15523122364850611945528543728324451195218795884461979305436791516272555693295075349564010825218659181031600696082017150615657649374149313558841019091183907754511272168471229135168891108818847591815466221758627366987756033029995896181358592000.00000000
0.30500000, 0.00500000, 18736433873811790515956942924864099053980020114080476358325223788227536382542467902215713895982714830888301547391502881341186458995596521760190848092749543271476933347438787434473847364720073151046271150611225231720625256771400784374688382976.00000000
0.31500000, 0.00500000, -22391550414956788312327551133260425494720978367036672003272136415180515355278576480942141254975522124846439542968843852771938449151621741854401119967403770966430936158923535854255197724197014869464006704246565398296409584070625174376142602240.00000000
0.32500000, 0.00500000, 26412059707657129400426337010217801631075180449273240072155096360538794264086932363128648230250151622144071443135757393383765246648601403611944307739208718340201839426466064869254748967897861542736270287988698053951276018288875138152619048960.00000000
0.33500000, 0.00500000, -30683716393564335825379404391988807630080377542316895623801989443071732134571359443242542310714977926323906162864032610817904335670288099300894854664453430287249742257753215080790477548806559018292698055382681311270115118122495459334903824384.00000000
0.34500000, 0.00500000, 35014030100418727056307156785508393504109589208943787303470342500569025989770958126780414102398975746420270164297139982455832923304585095042146311084827638468599387300244468164264915891615050145836155278956566139428051028783759424602347929600.00000000
0.35500000, 0.00500000, -35944985537622725152645358010596857245667248887239019344625024941425702106182693148054711706841490260998855833333447379365193388347775583946716668031256812627340991751039195139129589693476440999251445357309064794930309117434799989330899107840.00000000
0.36500000, 0.00500000, 36147646811110936543455677551952743423834274392495757164382328151291634471836874770472428721940773697984083516592345443143061532837837040828867126584596214692874615130006001538679076968230436134558831433926282897119359390036084482695772504064.00000000
0.37500000, 0.00500000, -42348427681969628104519531525252274177161739851479306293624054398117125048651075395378106499174223591033232195282744562472995282464092752399052207665541938385031159757903104560897018048133773294272921169297412012776778770840370350071807475712.00000000
0.38500000, 0.00500000, 48275669447484617309685098502590761293502083437650485419035965372558381511951016927030836485130236641942170598058526552810259192880298077420647426270280273023060276721879487213690117847857365124743564942710733590807335596839311908039412416512.00000000
0.39500000, 0.00500000, -51041490491308693865722959845661698889093101557141239111515191008140636894551946305301391402076337964409140598408941585392939134124578453434092565035523899110458165609100669529518467210013813286278278328170340946777286928936837676121056083968.00000000
0.40500000, 0.00500000, 54164896889758420630834589821700966263176375057440322583446779795206999678047229034153774836453018609031625629803164048309503305322254215268466357311319931331698429276907373267746299313374166352663032448269961809427446745130614911483152171008.00000000
0.41500000, 0.00500000, -57149651675429144828249203002371943088507692022281875531183596748497055751267731082815936035595783259129530413687674326450287216044421749899227554489802164447122778213501429190428087097076090223747302954579515399960281997580317381424125575168.00000000
0.42500000, 0.00500000, 59834213537327741786992938874506987034134579244312671935862473183697024008392892023729305304543688809554957119015941963019243819302732077592537680133449337095697790092053238744035446073340046716025938725034975402603387155482775316989439115264.00000000
0.43500000, 0.00500000, -61669537572231881867075916898896601414994992391115460113833392401497240444411541540461513371125965654940404663840603560684347287252390911955625472446619462353572712210917454534272319250627304786396708179482868760345291309381945067221561638912.00000000
0.44500000, 0.00500000, 62424819209343569145532903366927196053558192262734503319265420220670193717793221097369026875462866352720277520274596097866113918247581514332433612063952987337449286774792129962181301297098440352743821369681522983626240169817691280968412823552.00000000
0.45500000, 0.00500000, -62370567735238073943004603054701846085873992061493233205703241371551419035545267804272247414918927934980139825625260235948685179006045020114635085184633001445988531798867678670148609063716266033088741462585990730579937713186333865218989359104.00000000
0.46500000, 0.00500000, 61255067493727122972297446321074154339395294212782586107009994377678682929697443692219486080065030871464170540349746688426528454995772909654844395582158556325289041715731644021112888152725947496914914548823271662609709741262897058117920489472.00000000
0.47500000, 0.00500000, -59515308782427413024346925930784934045745319509829242221359577879525788986432153422611077564477365893329122630160536280516122323003494851969803490919630344490732793616667940093378177341635533713796824880903721010676253390131992519469615284224.00000000
0.48500000, 0.00500000, 58153216866716502475795909808983315364469175035760762960838709259889100385827519513764722402608167799552117921741540006733284948980873919093331448744749582050427508238852601026735802661652999066426865625453704827914306749780505496236555501568.00000000
0.49500000, 0.00500000, -56484565429889456300627304864439734487971884768908474519775314289534893153058574501946250602605984913832103779948389896399757906622858679041402123578243051139558335332163349366698104345412347036918234667749615887264229655428174068107536498688.00000000
0.50500000, 0.00500000, 54179938668067048161393613316440834297492342428262549582780733561823835317939172235542080515252459886513964255144136760239273403729535347710333450240392088467441950634303121429349220938107211355514295764378901802790386370424753159451218804736.00000000
0.51500000, 0.00500000, -51523605786960568244461484905938563543012591089752299589295729480576392469728548570971469638369392278989411171855437842100096112126390733281228797541386012974880896837622058072057601782914479920204915084695606786255680823022179005155877322752.00000000
0.52500000, 0.00500000, 48142879327337526176881133169938595146879850681639276232223059936300233319642020517166927788103003540989565766654128428760682276551324662731339125627903051908966744282198657198715962608990757038289282847098374432859925281838855425765092098048.00000000
0.53500000, 0.00500000, -43899312651866951387551742945513720861718618842334908363710718653624358058211343754145247419263989513347037010983959906421083693155567254191602825651267484794464498342692951840154425617975641478507354418424747830815532649983099623055715991552.00000000
0.54500000, 0.00500000, 39106311760686635869537449429159911807585694962185991067103720243997817614786378010933790059673278694076571870153820381776791610149505186853512832816888162971696459253756336908932082450746531633679044991023183904815669485234314427056265363456.00000000
0.55500000, 0.00500000, -33037528116239365227568787149120501757571099223032886738923235473951387691150910695712864014736358436183403364583237710715307373480170847017523097042083280044827643700647885932723267292972413296646965459144318386113419596184112735418153172992.00000000
0.56500000, 0.00500000, 25997589263567448142326716269830969096965767965891326459038485311050515347309626030477357752517575168187537379493720113732755704161890512262862621728089378037696905328748658505500795027850089866616710123999221623850041002537195508205323550720.00000000
0.57500000, 0.00500000, -20432122324045920827989765589005341308181090528884077058831232691243619722855987665943428825764896337979905599556544273726107186896756536434278626423996364430882655737351966371963481194327951644401748152143449844627830263579027495502248673280.00000000
0.58500000, 0.00500000, 16450982118741511139819135141441158645220342767539469189076264809045111936593027323583270576131921276863748144289867432072290815442154364320884051876820393151213515250634993261501407332349148824783562114797459114006817555254057186611307741184.00000000
0.59500000, 0.00500000, -13320034268437941922271950903014832922234612403815363108468326101350956290568036498010656331548138590762473309588904222670699565192103216998577921799533263135494656777671800043346889453420008525456123618494131932424991867627331932985051054080.00000000
0.60500000, 0.00500000, 10722085793310540910641042186418332029583116096821140569323441182205017832086989645118794291905116214023987117656515406054435814303577266428763198951478637423197451025658436798522977218270087642232819755321070112084168556125403594236981411840.00000000
0.61500000, 0.00500000, -7561546497371256247210026616630013588773567270151898194363813922279375845646871248773488794834370923501258404373528493796347328872910625830679257502443818348679083189765352887200470992135868024753946111735589934256498402685518910453182365696.00000000
0.62500000, 0.00500000, 4225528756330910586000778657517020723826434768498924827920513410700148001282501752101643519282379294246783058186970655045000346331811990900160563772601282484201475901460930265831659077106162959093283839400510445359379954621488606472010989568.00000000
0.63500000, 0.00500000, -1613322422135161761980938910514562961886993257315663399204306400647712810317910727830264258664212663045184596505819819833803582515706225945135342332602581710003100601472401216633889066237646247439883888272696974876131914723883086742462398464.00000000
0.64500000, 0.00500000, -398211245802074839629636802679021892318150994798201982971547838491130207393254229593725421049334820414027231322143752825968582970962952167417574298353315456754038564608984313008648295098926807135892753690132146759027770575888488198288965632.00000000
0.65500000, 0.00500000, 2074191319604743747870368083105326289059635317584468497615071166734761204152322632657712941175310378131663050148066681579380337600818072928713997765944568051068382047706557288427099154411418089953322167184297905275015366686514357729633501184.00000000
0.66500000, 0.00500000, -3608671128062762770904521857507345907569325911150559872463374664247722426857011234358661491108157155774620609462685544132717388457194186241371191766310705204265464188882985812818371774905558991948770162017225793952510786966074966013139484672.00000000
0.67500000, 0.00500000, 4917864902761489458917479779852000620755647590751287728858334460142969986364354393825036124433984414007880296011288221656346870643551606459297024627372119444249231981131881080196361809710375669217082107995787413006311324754799741859675504640.00000000
0.68500000, 0.00500000, -5791137191479816924690544716991965764375378132460823700727437766321255253146406153972194243151622061559186325278606142092187563213408384536448226704421461320256578108831063323627022945253424408141007504253171603972184277440166827589602639872.00000000
0.69500000, 0.00500000, 6320844124505001518516073477852984900043722090116235680600057755827671362432692004817837967785575745166754128367372045684561808223424294607066307247465023140827790401079800125113481165867560917937887905041816735306564796526158012792031936512.00000000
0.70500000, 0.00500000, -6608170969445224054657703273252043233537992971257345025778510285950026361169360779833429168231467686127925433346191520344056294771013210937556988646176555852340658025104071449206981859134936203589495372518202042699388030808149980668575612928.00000000
0.71500000, 0.00500000, 6681259174925131058521375128250127124803553402298500676233121387511446049115580166446378394640393687095810423507748774301921252216594993562706348784320482408587762506978191647607843761935372443377616476342696613306831659614258163243942936576.00000000
0.72500000, 0.00500000, -6566804096424455126155144419287508627642292609943503478915203452827905932992608173333705071715055850293313204030233271623211562087389674276295761979193091912274736219320903049255348951606623454913351831490913620363832595616051586936237719552.00000000
0.73500000, 0.00500000, 6265745072975659337311177591791977353105841292143962573928459282049885093310101170138487617672374822943646235665727328967582658703203257420289988620085992077106592523383701662536337624212608225926025841172800846006236003686858969435202387968.00000000
0.74500000, 0.00500000, -5760920439880264447329264261214103584869820560995680537427237186357877315245885377788200227630871760504931966955975777733873632317719314319871007572255709494185924376101763677600984384772374666290869500259461067782449990244731388798460493824.00000000
0.75500000, 0.00500000, 5164746734744940596944823295873893716291405713541680034303828336974503800589201249514552281411980745484727231319289274793971580948750909807378897316944070692131675284335607164634902215533636299589576776604860720296676836788796614592648183808.00000000
0.76500000, 0.00500000, -4659595933491332961467794647833525733736045470871262662955199773849977814214819659690913442793128721093410569713030231835764896617506528009939622177977357870832902750819459946757041564912531758646024133880238775940233525605339102325426356224.00000000
0.77500000, 0.00500000, 4299487521971991467129739881516236379472374556290919758524633395874018883551452185791080590691573600115738385506433083631225981759094031076973462341882485300368031510997932268785474493796477118496177699765523441161251661480499107555098755072.00000000
0.78500000, 0.00500000, -2647133053577267813539361270334760347985225539168743673288085925172743883996088371123587019045483691460853156334369720031718303931545485978713430245753105648161192234970801606744846380449046907116189355998057079597597276549642135478489579520.00000000
0.79500000, 0.00500000, 3260030659036979581408623073408786521535872692216177082553036307717410763018029577080878004060446946469339127395730480226628353573418221117950648393068252326320106787267996586905341933733204769336603541970575943134595111090072224055099916288.00000000
0.80500000, 0.00500000, -2677724094176579958754029866985723081732518051124780813783113752069953588832389641717125724439690705381570978081406490903222231180126660922710712146841741250011885207349433833089884226787932671688362437340249956992216173646012206968404443136.00000000
0.81500000, 0.00500000, 2141238612448881495313395128803732544657505438614758113755374740771579921028922075633364289376642636497900215008098205469753268821555411091272413916949325416278702300692238911429594655748016443147139268805215294338824610255500722593593294848.00000000
0.82500000, 0.00500000, -1178802475630032127739864364684079658478603258898612032501992849853677092430785891932743069721770259417896507898421221027025489513356907673182689478031219185932947380425328627923183570393447819149837683148257033635870249475129218532127014912.00000000
0.83500000, 0.00500000, 1240272135362057075917952738813520204041383646458123683466116747333340726832994791207755851433996365065065704878117715576285373525731471644739274144535313333609360518108475621317488689815429088401518647147754407141362443168672633456882089984.00000000
0.84500000, 0.00500000, -878721651050704574352404959868605007210821181528898455519399337640266432364940629777453992301723407108304840472573862005948692987557181800785975318899571508931467641236537776507255918442573308729450959798294331602818729229748980249377374208.00000000
0.85500000, 0.00500000, 537133265806261836724267652633367713955983145072416342616798798856579005739260520171690967810804364377579169513488525262026992599332059013476964703868045626028419715127875102177949327962803947518604781995856692764283514308025246742315270144.00000000
0.86500000, 0.00500000, -280020328706376187538146655438529391972828007178341387699976655920581582931395008152758752573505095751914797866293421448070709793714411152952089944860507486667279632179664895255297422839415028146458464215003749331778598104032813788304506880.00000000
0.87500000, 0.00500000, 119363138185142701971026871466032606073537158620574294914207914350481730795400618884027697809564433631054394848161930174319691469108504109483316929602559365837327801245773229082978050193740534159833032410090269659929725361950153838333788160.00000000
0.88500000, 0.00500000, 28335345119925783481731297099083414209142989043916390934820616119518000279369418378288355948043046803029995963716202105907218372507145385106650485604498399023495619764727309665637885799991329640500452133578669591185187646071190885907824640.00000000
0.89500000, 0.00500000, -150338564104061055086110448431034063115131101469538321848281837904965950939605992526632765224797893714916870239338662762296773542789006821601956417314262246904918865698635542939940322947373561419803828953977417151419897886946546204358475776.00000000
0.90500000, 0.00500000, 210741468481205724933516968189105763083918760900061069260821960746220931702397990911015839701223511111452188542972966663171851433149661041814905078013763156480499689982803826797468150984314108182416438359341769230484667144210421227005673472.00000000
0.91500000, 0.00500000, -278449447035221605087114284830205667892783174312048097913280337791827010578090651040430067802486290698344870294376941637123886338562950795468253596476201336821542961679820114153893961146205895833701549688792797835194001871162087279582773248.00000000
0.92500000, 0.00500000, 353085108849682951145543488237224804669703021671584760088130336100795573166449424622685967326017206886235646225449918011292447761667302127590534913556773460927999269502426834793977506783478873972053143470120813659202388647641416905776955392.00000000
0.93500000, 0.00500000, -370758996841011936198130836672683969844994438623304748616459599974847432828019705472896276037056619068770404038289865788684861317575714875251719709376297283117465807690276817424903170882918792508816304654810288141644334785944589968949116928.00000000
0.94500000, 0.00500000, 368646811689106019884889278490646647559669085473982206113924507158943725231808434467373332249357645160049107013758942349701909053177045351146745623214064536523610980882278792754028917251223448999682509944967048992695272160509779932268724224.00000000
0.95500000, 0.00500000, -348187592320001987790483150050394436359692573778612705609907067945376924121297665263679272829058923076456921212140757182932250906650578989966905213810937068767896129697238540226495027235307106662850591569928858761030655491376987182366457856.00000000
0.96500000, 0.00500000, 328490350877181273294952391385981401974748968044219677688301219130358306872477422378922915864168322822752775891831557934956859152582643954804821519546393894092559444041894924814666754054027349241904362293205919447172135647768401795069509632.00000000
0.97500000, 0.00500000, -326117818878944758981064484043214602917875096829929617490713148918436699931116024577848161217071000107901173558574926948835909762151515012434008940244636857101008509418110375501079040290277906659742171558124808800131231573733081605510004736.00000000
0.98500000, 0.00500000, 319514743347310655282736767359394300561900114480463590450101935316299497281849763677389615294325625507344391918989630148823448217818748974286038292660432729465881748904278803356879261161342247463131476099504532909886841946911234259201032192.00000000
0.99500000, 0.00500000, -298411669400195125022445958715953851286889072473420622583982821079249315026222516010445868415431678362391651934620550756039205977508650074783828305608375302799659404094439086613228296518891243574333450781050480715129164607350303774899961856.00000000
0.00500000, 0.01500000, -216885576511276217088272110726685354390681595034334691473679708912739243955146529707511742119229436476418100684953874527102495067323434181814151486520954173097700994708794694371588414330569625923940172259165653343922903896483870508385828864.00000000
0.01500000, 0.01500000, 189361306273751623941382426067214454091623394497589741099253801942408112189639764554330103476897591653702473288396105452443317765203086110404661555185950504972094114194535264152098131531039829115710055119878691228438684341299867248024879104.00000000
0.02500000, 0.01500000, -162331996057239320264276353308980567716945204995083551860095677296249517501997162629472068723253350545056167327310011989852160906215337164172286016098517079910503478845326365080240739246464855063113416543688600209259767061302742150729957376.00000000
0.03500000, 0.01500000, 139024203900504911075172237918433031625629878294487417077814734746568780737145050437887657557404369764728473881431846210751624755456436766632294492797723143219397022986520436389330329535352475822670795373166374444403464989596088213788688384.00000000
0.04500000, 0.01500000, -121551780786008518835636655820601778608617709610603661354769872012090079603456777395742312231575863057151981262045063145180255900507498754380348452706601837391581103194409052908893133727871490876512015390765394619847615942329901656737579008.00000000
0.05500000, 0.01500000, 106752792496036245905027497974044811372450578661118082531112640643193634141343398510824927282519889520496555729480396521886459574833097389906875363722939542909277032568248308116081981444726984726114807706255872366286264003386371452184821760.00000000
0.06500000, 0.01500000, -92852983987112340547923132362972687739956451305210643607457502697593702554998719570562874568964784687808452343115648834892759552021688743849548692915892547439571028995857127174845253258306475013025267827671518591233316426411354263841144832.00000000
0.07500000, 0.01500000, 83680919350468383875213507183565582573154732025196876936404555816266866592226981332727730896481864854582445406446047803678946113929606000828959701222544037943690682362904439244704542358524633907624042989536684370173164163050920143073837056.00000000