TITLE = "Linear advection equation"
VARIABLES = "x", "y", "sol"
ZONE STRANDID=1, SOLUTIONTIME=5.85, I=100, J=100, DATAPACKING=POINT
0.00500000, 0.00500000, -1489435794001729526164863059211462499131791722829140182717550389718310293962940230099202704533508916165972821433453304626179602587435508268714661487435913180660713681891599615280486695231293285213949676488120478030558542752283142745727985213817818034740562076466077553917952.00000000
0.01500000, 0.00500000, 1915518402667483186938825561053449402601948819331304251411901185843474557120693328540074136755840487080146203365386397688518336062442423126991202329741547358136031226746462925519747096998415661881132940523581619551924920478681836184405004153763114633015961438801241208520704.00000000
0.02500000, 0.00500000, -2097528413920923888692650456506497862719160680737859189144091350086072238545839689193094557043228117697529548884757488503605686311550283105962624888304893447432715174225727021729783787525868634298272950070242391340504782765816374895033185188816153086112149587433394876186624.00000000
0.03500000, 0.00500000, 1838204373319470813341438850017214900293536114575056993328068681014042298780112119849592757874061053025515179998708488134152861687107448605776672434913274539653338092540235585040440090041333704191530839253012250701854387464346233513346071256311873872420462976781955272540160.00000000
0.04500000, 0.00500000, -1030259107886073709174875625153473298806978910680295796308194626874387158842807161986089289335436943004517576185997538894449468330890022960122206034833348226719264706988483675935718649502202440130060839936188866000063603210821585036608506987233050484453975305714907045953536.00000000
0.05500000, 0.00500000, -67473939430489307231055151470631552507769057257569489498211176742890698129141744698556260871383377144027320149323897305333142801964709293554112215169600077805429324534846324032913567720348618857009113006858147486770727368456040907408191645213931503043636393286510741291008.00000000
0.06500000, 0.00500000, 1268166569690448960965837082294338837585971226056123073637312925018899978870210017855704658349986665273607637515718460025508653528695320940751568324823334867989214266727414173921324314810058732035053723581791323117975872263372269389247821093929387908771747509248066316140544.00000000
0.07500000, 0.00500000, -2532344867075266582037589563946722969839490254483689426123042244533878424235555997780953651783756869731410641117856231642355642311186709423898920580482974533688688775120419780760978839895369830254423631820924505443929023564088639084815502021244833233734588835028064710688768.00000000
0.08500000, 0.00500000, 3827542743221248442435996976330811012255211363910360857134953786732772705754153539223233021383377246275453479351706263504334776841118257762414214565357698060109611657159958366611607964867950000786413609870618089351660424310298858996031006998983309623465300014291348508114944.00000000
0.09500000, 0.00500000, -5081934653022818223660287411842043952027725351778263986609867599568929465334828196495331885286486301712412778511697338666066576024480595114793510977880718303523639551467475946364729913222484536363204309867547722663056256861689466151185526873149034866292618102026816182026240.00000000
0.10500000, 0.00500000, 6223604154285010321392262421884777889196748670386088239429078930327193867340061919847905042433434094184018620129728919270181592490458448492435811537456435373564878881622318417694816372835140950610316643754753056040629935046024269936841709457224372887616478663771810139471872.00000000
0.11500000, 0.00500000, -6872382841975156189386914471841136736951306919573535794403662502045862041285872420218373969986241390972519745411764542350355373909238428728396682053826149717302680251871944959967289137824969416982909001932726474798057484750879162467838060173771210429812422990896432035135488.00000000
0.12500000, 0.00500000, 7164906645785390296530529884841700421560959392907456713768984941231920521889777629313937885105462039527914770058816639311035559151073340258825583104484412464022821941102322234877994357414253252578649582754860103888095030104347826776051380937509290863915026021748178851725312.00000000
0.13500000, 0.00500000, -7346598449362168442756143220177073137822876587616364379633096445794533471733989667633129490169222467546575569790573351396054861818283333801754162603572684090586520128563295471819509308369585201453282265456333822371556065649416963096671419696189243266412467238912093893689344.00000000
0.14500000, 0.00500000, 7673043221816760952951898075580439457851563769333214069544396160943629085898865002251575558741908838152849713866246170888236798639352467291121701065276184119896829086010614731440609837228546870851368332709292999181368004855157478151101579178507200967684887690401042218876928.00000000
0.15500000, 0.00500000, -8388333045540221471309972800223877201503875084749498548584585660331538072010523510333088523138095087346353479479215424680108262213315563322960731785654842700809597033785024900262946979668650664733913998286889891879214953312503624885219145326440193319292367636889707659395072.00000000
0.16500000, 0.00500000, 9031402707072422926133149160884879329385583139571798968501846523553945358886840995746626291696452547007212528838207424297023662699870517212951855720336988405439390984831971774365091535682597886548864197984321534264854383577380218310340701461224267516462098869967520121487360.00000000
0.17500000, 0.00500000, -9659147031158446215198920904723904592235392555343811929443674648464441521372456076706995607171279050617803890227493589530041221611306556465903552787018807822792099443694045537534764099839978313879597954691038801194180336635471192265521994153079668147533830334689459165986816.00000000
0.18500000, 0.00500000, 10443252525696123931819963555543472845620945481113103128482773565605915909382126149115101516487099047048771455700430281496378836276428471500978209625336367365355224980367130047447861967068359640764361553441754561427713212725071616698181229448250087745947766472536200526692352.00000000
0.19500000, 0.00500000, -11088024332488598144560273453951860744978352702165760686336442450425907808772055365514924747544519187307275461173511731344642496096410929446423889940481774116645619653227435640059339029038834481149644426428639928930835282675972834531112396866680444822666511170520150358097920.00000000
0.20500000, 0.00500000, 11548866595545929074402238333883453704645323395274935095207266850504404871433912784353089023997301326180615797471247517487112306398379297497470194366727621990483766329604358627759769799864453727729918777598414706762386322152258643309961256148406709473622815580271404841435136.00000000
0.21500000, 0.00500000, -11958095083404794959416319490835994500001820899132408229186997659030810355725041108022770426198126814804617564058465876719454158242157986538672252770080319591960928451724463456571870263084328255445512320930333428319577171180003643719988358563242450351760746590727324712304640.00000000
0.22500000, 0.00500000, 12340085165890274192726730481159536690528671644589605452793911079029483616943959701232136540961009810884347304046309808792549222731928119508335584454966417554499116508746487784316456522142513045261210494676652271600590618976313599713570996071164354246398031249937642146496512.00000000
0.23500000, 0.00500000, -12667260449861029090212234037369238241561677385362875834301189080734543201596732682368659486209307626821544408725678183983082094942967964634228196655398288514955601512739681659953709517785872746163648262748631379748267720242292973493595225795035350182974745614979386746863616.00000000
0.24500000, 0.00500000, 12819607209562840491522983180166017194364949313216600906302862305492582664239067072210240481802690716385600354354741212554760065294639127026833090060383284229795207073339948971445103841685516194994570185568752004113341097358071142665896968950127637828350786976851132451651584.00000000
0.25500000, 0.00500000, -12975800734351611485904087004920349986877490366119449686587107191270064803622028018304717899465844095871538152493502067736462282667067274211603802380752055829504689395044017400064457051093745031769046608734488004358111733251707342183492159737419534624744128901662997968060416.00000000
0.26500000, 0.00500000, 13655075649897528955237266386703743514430210806438062429694844548362283145660542108156905818311326196841607279877385240079478124411482348122851556309009432869569624817234747112946986898721009676788717205667606536550279949800603960674678782173258769219781992862385706165600256.00000000
0.27500000, 0.00500000, -14758101815656405285875039694400006539104742366522296938414918301569203643979892277057584397040991302541945035248572449489234517131960637580255460434815528530199336913234113903884948064235992922089837156441593386482791138392539449496468194488215734334013628362971500427345920.00000000
0.28500000, 0.00500000, 15567206769988249314167008640878656388078575380809008640489626412762874110638092830022673616934571995394001788142271408139839367979708690772345106796131657909927069547870071420831460430373357719756962913468799195308484268339884016402612611601156264716687142489415174825443328.00000000
0.29500000, 0.00500000, -15699404745514355349513549809626694459774220126765263145131845070190953709609958744800656016123719857198156940386272234364205485163328228091880350354423359404522393125093873595271953203181150085897528299814055048935704997921317063655804698595974058769773231264279370945003520.00000000
0.30500000, 0.00500000, 15201050950050548794134555412334418958481453388924314369572961601566630202273091697193010274015323855789831094898677128094326609747568897697982542324279204571708022730192987488202557336432546097363884515327692543174942381711800499167177013619182235866675102995660444717285376.00000000
0.31500000, 0.00500000, -14393457606326145379663747158139013206015374541164365881902216940805282566220745024176882491080555737625088156655822959179906833805523731523751517179719042288231699497154216227693368685700291820952227935716325773746863372789788584483898360414018277087816955652149258827595776.00000000
0.32500000, 0.00500000, 13485060796147293961806893069649756853446334364741119359758227858354922490391727269306416271269582348146090553843009636213048015822380031946770974439460424379432480421219463624348028964223432079725782166182758422322794472369853617403616340378728413508766545263631555436216320.00000000
0.33500000, 0.00500000, -12131418068619565022202002158153385792659645561853137448229628042741838688367812464489157119531795568863731583772365297556771017610809022480585644462363489615803260100859285063846822607038435267857231569472117390193797862799185552817464024681142208810564364060600932442832896.00000000
0.34500000, 0.00500000, 10041938209625644211609193400920202479049241371350394955737086299106956380710268486332256966449697930026792103888268127688236331638515576912895977538945750417852969635082770721156886008443285190013680261932195407610231018265972760043619460812062803104968461168819020226363392.00000000
0.35500000, 0.00500000, -7337069097316585394834040020867821562784905958556273361810737290833821947094754115660967352907934650557611999874169225665301035660416355766729036361711747866316927386222041721369282663979551602132849684660971943438847825527534134400315341871296871396629662186934305845936128.00000000
0.36500000, 0.00500000, 4154909660242359249159561701855999168698183962729999975179678911447150583292546490848798193440880797644043967000682892366266041621466180801621584957038040617314880010871948400753160049566053633471497917457356668600102628504994173814528711167476470663645051632635801405227008.00000000
0.37500000, 0.00500000, -616954614848700018768345089805964798629651711423419235170106727126838851731485532027892402418242323792129334454382946942282848211287732494741196498761318156404598939014533304566604282346530147227192025616883610362521021460949087891572057191062317558363892074974943538839552.00000000
0.38500000, 0.00500000, -3382641895274503545497820669421606538519243545910266728177917130106502183613852042217864136397385887967915346195711679546599695539172522492713225841219751440877999120327527361517104370822324776076804589596032092210615870641981096896639108443182330985241926588857706826694656.00000000
0.39500000, 0.00500000, 8223228818225756787976825160306879300556295727787914297023167864645038259152299691472868517283145725963038788070075195626144510080644881416825192105072497338657413895168570258905812115190642865777997433280585034907618623410547929048133447954219359443565595603634108047032320.00000000
0.40500000, 0.00500000, -13810331032657017177295859822702401155388560071936186862678876470527033488616037242081459123316426328710931015324245914515324125188291630529221365972535175277567154484601728947263236044818633593759958976545909877365118568454917981432014407372769002481730811230579718690439168.00000000
0.41500000, 0.00500000, 19759074461723220326618547887231182467315712167240503328647655241251084209864048092773127387277377157148194894526573823472016450985056895338537380777929658496624980537179116766686414375313236189405485403358771048619712995862827065223399508326524838450341203363958609338695680.00000000
0.42500000, 0.00500000, -26080164627667026156841538246710411213323155555126454467140994489223137587142288006927330070385158164313662803159831504204214261056232810365440339624965933217049134997975966445003892650677589286478506074904729307092231261719225902461759339767584842246426337655186370731180032.00000000
0.43500000, 0.00500000, 32730722757000834136060679871377482009229070629974795018907998820910744558822620560930773914362718498316467616462966986723982727514022348805208620687252179650439987692776743172931069857476721881450615376057725331060247584889065647325631827880508312416236892423327181483016192.00000000
0.44500000, 0.00500000, -39270448918672255543395630395863473501988867406499984388622702119986240122453063118657807569855023454380532388236962930513211831800974831262523554114558947068798077238173918529424414247306892888041216067561356278241426147021195085906551489162574089263108055193153409074069504.00000000
0.45500000, 0.00500000, 45229314243686505636307176426391543977934646873678771866154033032509355182261726740564580912051913070690157115355758925262510068933884132560826931543291084165978857283225278991565475146413961127920390831827459707973388849708762324447852817478708182352502518331159542486794240.00000000
0.46500000, 0.00500000, -50462787689592852547021591364191100002678819301741530224826078828967187593236890724858939769164273433352623806800770084229318803111016159317102079634242650502728130585172945959534697884160542772228665441271177900838061059107306644736767216515242294178300814577092035094773760.00000000
0.47500000, 0.00500000, 55114579842863090598230672905051438193262509588067968042761217574744193846826982240219283658034428892953896379633896952506143549740563543596776903770321408539234461818212633845605223734022292790044174081591443662697717936286238207584066247358626148153016835015549496407883776.00000000
0.48500000, 0.00500000, -59230796937389949902781761288270032902265522192228860228837603602307871225418178406612014150274625308766545813303430108492117389423923307741485395503608219058606624198717680285177958539106266067151700563160033057327126847243693392526939911341977594567509552964915810671788032.00000000
0.49500000, 0.00500000, 62730360333062761452918139052618218121323754976360087880593663116770625528344978059111927010890522501325324360139714054865217142681708574114745241132681981265311933676382111996582560681511925077589666569714672153001825735318085346977924044252171697981630500112758958286962688.00000000
0.50500000, 0.00500000, -65704086660785482361469920783445410899579167164531483821912690381969421512910211994434738368556165228215099478452192242580518276156011413853626653482530973398514164134894431558259241313990712669385348468680483598537181861533931155353878410802040581909688221772790188436619264.00000000
0.51500000, 0.00500000, 68290451855751729958617471152727707069174617855629318706171349302215272902104530011071935226278124942668238542847080041599118213444040821319761098899020722123094514670820434358797416622654485288275043533452132140268181040196230808326545109807652760556939004689000227219177472.00000000
0.52500000, 0.00500000, -70311098496783477746121277722367895920855003414921743438408035186338228619774208321841889245125294867904065498320494076847369749153725232390875417234883956832600684578639722133687996942724345304614981846253544276427318819338079957047958323559237326603069898799909333152825344.00000000
0.53500000, 0.00500000, 71343869876977087555997807994413756169153244134330849168864873350477066877450660333847980174295977041783931295615166971772205159478864306218173171136557699404425325618554424257532292600987192402392606366726900666249081485072604921987860240066125769864240882193023247883173888.00000000
0.54500000, 0.00500000, -71163883644593209603161377429148115030807894638731783327944677064583958338439082644388275634931184301826937750630581436264550230848983984669164556756114288147460220649658804421389397040176288016092589900899928602262489111746052173544038549155522655479280110886381092280991744.00000000
0.55500000, 0.00500000, 69851254415808880018430986126201222987118707811421722123336951089254686666804035408836710513046708290460798427907010015230793853038071623877351662205699247715676656709435747543416593658440314350908738050918679792299310488457942516549761945700008506705716498073076930554363904.00000000
0.56500000, 0.00500000, -67480918987884115324056076620946778267092634128100076963562206898226464564924440719387622258541674990354871398838754066827392484867462206695505492534120040175734842771066603132224098006814588565426136755411500490861017905180991048855892606970140090611306012333000978763612160.00000000
0.57500000, 0.00500000, 63969251696047046619098348099106828355727698542722480196398118361432026333105330835459998591755017446172525106478157315860040641110136374443468544977329784898721852207603561517964794343753073870358193092713610025524423095811687739454891148215285071305733891699822905597624320.00000000
0.58500000, 0.00500000, -59074780049133219355958178933686381396854715116234220057700171983383239226216632728004577133055135901270017838859843996304634148954551885915941783420201241144095189048806380899168521684368887281853367164471998703037358352311095291061280537472819214812272011758812539176091648.00000000
0.59500000, 0.00500000, 52525421555261800035505531307211340180708187577441044952540422331414707302752783766554692514310253856641850789623839002861574401491877880665718553425469188544944537272559652295696418832333920051286551314925529611123844014071792447676559004625972669051299715324656140284854272.00000000
0.60500000, 0.00500000, -44187651169191762658699523044000418569248503331904635975284828687906588300095442829722758755080603448549867087863574917331841801624148204472264440727985736378180918324893502281931373531584891105633812878872869990216299923780557293523570047935481484314877445387886416472571904.00000000
0.61500000, 0.00500000, 34010210987089587552262891878448251405198677838164562437938892304624766991074625539182862544874992440345315959811605429584482713068826842016328814194176778036529064247088340755034014593152052829228957075340324709795281536562138566167811864420795937295744989118241226555916288.00000000
0.62500000, 0.00500000, -22280810551432364425858535041483266578797287459243262099496242433025513367790408890631450985239298254495406038049249217790574413839942610144136594579626028052104291033758352393250787541985779422700739807316043348480869967177105114481593362884104982373044448107227574907699200.00000000
0.63500000, 0.00500000, 9678600763323450742422309253088458721289120305997451751370970602039580314043291688630791682077869871715099735548038801643963982880258590051540772275470596593634135890723994174775330863159926087286797886695192894867415092840954614120086869343743478344494662482246874802683904.00000000
0.64500000, 0.00500000, 3585239249961122701730262433879386129813629532090312945667708973050150173853887411126546760739840014822720243260396619228549131916501913890531710473108267431242116827446747219638727756054322089709438553953005181878354270903550663553615788590085352508145275634504049969070080.00000000
0.65500000, 0.00500000, -17648467009304979271728954269925528773019571691330678755941227592397573034768687328974253569611166901045263262468112460491020960790181291443177575797299374889686399980211123569365100899865698192961157257028839036446705087768489887630271772631199000167356862510151847433469952.00000000
0.66500000, 0.00500000, 32226814957699572557837151245284469577969068650301042539223877290127632159417894693466068974312622819171288264884377778067895983361082691303537808083830910492695910615490157587841435613523911241211365668436660575264185762214323412689105415307966549601003425582408652763955200.00000000
0.67500000, 0.00500000, -46832898533550921970726797880807304056253748510748964938690557763634599035347356981155727288507055038368173257680054580133544112372528278826030983134764815396097559153592711208222459521780176720905139742662442315825799092581483815426675004328116766490064141217911985296900096.00000000
0.68500000, 0.00500000, 61079763255104726305621918811280657747579225699308411490670281263862376020599032490023493288501113476388026274382113501229394046224958986529911101356987847899093499468400317644710080120357741999562508083104329213262753242162284551300918297674328826893324584267081575812825088.00000000
0.69500000, 0.00500000, -74820842109339566520425552439423781733224529475826895860268824844057759465793633167458022591267916056184512944914916447524124900081194011742836289672641806443667687372768729756978983816485412304322010374397843208222718603269996953252717078380205183370632766105557693590667264.00000000
0.70500000, 0.00500000, 88194994974189712417267287174862120531197159625617522450371927606920825363504359398252801158209326755948786579058915386041429084473943963831171266571946673499218132890516127087958231418078833126025541508953464630946931598403220533432727319010001406455742387369947417557336064.00000000
0.71500000, 0.00500000, -101211216153532233902579662416616262211462915247098341335894347252918328769176083471598853660978811062674261467142798201166123410703884401296244240068237025517275997943088203411771999306826296727986529912136680310812897837358035302990810638192860495998303183744434155582128128.00000000
0.72500000, 0.00500000, 113408817101344556848337394190533413764532921415321092258289817792151685255134391670689444748092981915752766365678732695113708367089854152143591280325777724041343142783275586550366538724600313818321906975280793292045301353102054422421076588478686517517199525628855468458770432.00000000
0.73500000, 0.00500000, -124007999509588743530931862990268150073990600645745624352130506003683754429371293338469191393651136591299231774182411680003675559966184984874606386637186536243898646913754909088498615075601171979192165531109985351904592154670838368800179340594939387738715664542684955302428672.00000000
0.74500000, 0.00500000, 131979973000071599394688885832398297161339320635747295714963008607199766186479736098989580719670548104928545402188487129378383659242990248644324253954681875309505993955661321918512363004987439500885736699977330894393691075726040517477510606018396094521445015266794969015255040.00000000
0.75500000, 0.00500000, -136838562846415953466075875031473743164882007947508349028132279837141984590304194325112412905768735591989750174288072451357883023377836037793951827071107577272494087284367799717940810338293334784997710159650652563005325221390847681353141770046927331307696011988310254791163904.00000000
0.76500000, 0.00500000, 139003940693116539445704656455994032649007317725320948288757880813889250581189393358367608918926805713178009677918097486175432957706318751038519367938966254393038907132296505540026399618724923710624576746719409001641633743139135717064276946327615185727368883649468771015327744.00000000
0.77500000, 0.00500000, -134072979014170600317856407953049263182278066373584810729229886511234072600086183608272492773567642811216140530673215355166696520680131982483365124020836551920824276480418045342464888860345838208699364172373493563878463806908538981023232797114077655595117324254068916480901120.00000000
0.78500000, 0.00500000, 129614142355154424893120299208680089694303622264119913420403310354229943537823033534901765196866915231742732244813459953557074689814514241412036489801809961839958139313525358838309535050449150170874941697269258260377548098547975626381957414627010027587118364385975895733567488.00000000
0.79500000, 0.00500000, -120628592491376449764249878097518769863827380165232978086733055637099077919929221145178001356685415042159167946312476376634419958721990994722900849145424154791049856315942113844776488431794546619824084690797684606333096992545140895711367112388203591264890586220514515108233216.00000000
0.80500000, 0.00500000, 126081346872124475378885292400431686953053483084325849986022392330771543956390921904268380523721464789324243010560416430887692563033870596022655977938805705583608111440933689306458521403315425978108843026406109111356715266985784341460838796797176439029257982179594144770424832.00000000
0.81500000, 0.00500000, -138671046014146426651278038178374349023556244021042979471828179774086361470363049847768749074452549113077382031721411412077006676588566476868678368819592224873281291856018672862689597164617342765085936322492317076385648608107606014110504762935212148617358758407285799632502784.00000000
0.82500000, 0.00500000, 132234579125205435265650763585877577552169439540841661521883123595610136009077852122715561683655685630271563581010400364142750752001426179642678913323079731912808920357855882722040871105450901421354046527069979339837823668182258585127159992161345520767969238271682570837032960.00000000
0.83500000, 0.00500000, -124801872044401685039290781315868091661301173577954407678392822076142465535893017430093653927950493909737691510478886543148512587204551633881290039877713865756083913878960839776028940148859519203980478365744043400146478227532575329591880800030643964022657166459763402362322944.00000000
0.84500000, 0.00500000, 115218992087224383660239592053557900859639878363166465754440642070354202875846828390216409553186265366887050323058724349283050787682764434276752091610927792391019749008261203808102877529906263073644810081442557382647247409138923772907453052194925330905329304961980382513725440.00000000
0.85500000, 0.00500000, -102896115707778055438662323252970362210866082184136164501151837233210670457782960525872301806267126109630240491572515161156046385536944514932466642026379712670512510561186582458817725212812286584679414738757486915133371372106404587568937351554135092506233039313548119690444800.00000000
0.86500000, 0.00500000, 92910620168906518618590454457569933045756435951539741436254002364137004597641391476845513237292651931452205042838242750777431049910982010905178709101375869196275612354689561829488587368030576089418526077507061929710944334898461483299254085174559312189201939218884610968518656.00000000
0.87500000, 0.00500000, -86507209981128801788063552399791992868965393561351264187138740344052801160701016817598182790839104947589886697720100534932509545452665324432568249189383482644510403949803698369707535511593620809685006530847932139710848537308435063148317919495997299131110668800526807921065984.00000000
0.88500000, 0.00500000, 78792507638604433232637923304327771063831376820626365759732404859514122172224498887570941104776961777314232395325481320411735369010398834032118829200899244438439042667722771983693982806837829422359433121493408266590711431594827025987580700478820542344376292843821785977716736.00000000
0.89500000, 0.00500000, -69178180206574331098977017921281609175707111853165358657034969622827166786456563159741264129687563874068676962123693322704657734539894942436954845093936457068842838544961241207578935906918581793279636528867926556877014499494249353222312307073922513069426463115923718511001600.00000000
0.90500000, 0.00500000, 59572718305491074113059076854764851362416927506654133983771489488498022654522986758326565490204027402894226635102145837892641565863539605531149759037707310148061212223720307822935220101906298635400725987468364026005080706747611466525706069354064192467161043854105593891520512.00000000
0.91500000, 0.00500000, -50064123573651594650198283034918797191846973611950859857634927202793484563491597460399293222577719034977069062662195307049487782871840202474754635659139193194270878635675473413430383298859758210664353183784258172128191544288099702000944090280326732204959044083165414912163840.00000000
0.92500000, 0.00500000, 36897534964040634021615008002215505788761294586242866873756173427234238970654386396818243806047178499625115002411639650772099641016593277404746997737276622199989979621312229241804009998449346789746779446365506316031140598994404067113447968197108710920433530652535922609881088.00000000
0.93500000, 0.00500000, -27938340281675569565974713848844429754033492555742050609013606829647063022923202074802717015519355956957593500585848053506766028828383577783689510204604435567249668605989373081620555974635844666967667595495986544768124035232039797543959245868160324994961703464316054630563840.00000000
0.94500000, 0.00500000, 23555604879825654521478919696292041400406767646552098497863717624458998570574075456701833942565406430021919800877234591289973401177930392477752063299635659418683961921296122877714266893594578152012071078486408569721222631324987825636900385565902954377762928572858058108043264.00000000
0.95500000, 0.00500000, -16479704540993251488991605288021256910285296054160771588758283473258724290482728477087656485944679103127780627344583641081054846051788993525952485565948971761900195539584599984721359212639772826039458308175196261168501821207852829513704630844524617111532269364371966551654400.00000000