TITLE = "Linear advection equation"
VARIABLES = "x", "y", "sol"
ZONE STRANDID=1, SOLUTIONTIME=3.25, I=100, J=100, DATAPACKING=POINT
0.00500000, 0.00500000, 29749750152339725153778662397188635059181167082831100191443287217699959310101780831761174225371955908332324268926524245490558713844652957108173629554688.00000000
0.01500000, 0.00500000, -27277554013764386555309200292825485599529506641182373768282003131430227384875515914458922875262477809905653890687670841733996275528551802425826762293248.00000000
0.02500000, 0.00500000, 23500103670919354909971407524488077753776710492194011075999482269197426132970326804334580497788697280380685095785156315343005278653663687596473501876224.00000000
0.03500000, 0.00500000, -16679532430232616964988999374199030988157769935183459880957547311169770650318850286654783119315252852735170041806456584196697876916171067419162631471104.00000000
0.04500000, 0.00500000, 12779493602976917897302953351953595945683772991686139667920912507448607559071340340340461762561451148951002702360531270386079188234520597062268028452864.00000000
0.05500000, 0.00500000, -10724318117321298070965455959916061411327088307779382986137235733130002674401844350215483144180089107975865539621851207832906613189904028117664656261120.00000000
0.06500000, 0.00500000, 7955374204853611232970527931290664369122935627135686685410747088621535291876080223219548293791986517391153919455875604640384582328461341428005596037120.00000000
0.07500000, 0.00500000, -5492722394028755560778675245613704245481645602337479930239850272196481830168207464810577780317690846538034347794313546487035647637947894377562131922944.00000000
0.08500000, 0.00500000, 3500878675420591886469145267324909763598122913589117841655293005386534795555961386340974690969698632044662071123585231071655900396731437630501251186688.00000000
0.09500000, 0.00500000, -951367361080813398307624769481976782442666372886773367652240860720330365906199041475432796991242457199260013698305293955851470934347108272716698877952.00000000
0.10500000, 0.00500000, -1155472465809323250320342907506664717006068585781437300259493858195323989084091687302848872501710492722504037923428546637993164849097595837196451971072.00000000
0.11500000, 0.00500000, 2897472182842876598819298334041041873168145079807201522248196443441803101986457322983247190590741676654433252955494012936644193807037058511164160344064.00000000
0.12500000, 0.00500000, -4426812741773127535865635015476670175287837701642838913920761344915724924007640021779861675511632471612733851793631868098645113845961921323243069767680.00000000
0.13500000, 0.00500000, 5695795941497080703338039818719639510837313447936446189821989287662155485464340246022922680529075939387385116010396584008655093405482921001149968416768.00000000
0.14500000, 0.00500000, -6522798692977302609709807153774004704278607606925296750737396749155237846787176520214219197195869039179189031014164625189630638153767240990709463908352.00000000
0.15500000, 0.00500000, 6856162873731898432562120202801092943532060121626748651917549329158356766238326517320660461641785339493412759477849750675981479599312398758267385282560.00000000
0.16500000, 0.00500000, -6798933480759511560293543179667440778457198270130493848090695538266235172457989437070359102826977842955613936493865125094927034279600697278083878617088.00000000
0.17500000, 0.00500000, 6404871719424438547479205480013857337928183931158332017617490882116287018523349991501331322164905135792949441733116133614388291060754005429696229015552.00000000
0.18500000, 0.00500000, -5659143539052731053027840428686073579261381854122274473194262857978140478949675953045569158966355518000996045854137869632287840975259755054230086352896.00000000
0.19500000, 0.00500000, 4557426399701951522801628541902240402899584578071553224742213779266847543011263360272245541344314654694017056390723090727170692476226850713875794362368.00000000
0.20500000, 0.00500000, -3145139891760293776443960606686176087390976348288555776382118747816366615794081257165986858901288439556158114924303568354027287571511460691166619500544.00000000
0.21500000, 0.00500000, 1486563825050610626623427379109231104460204051050494347632515306073267431533613317826211557764111347592334232035295868671464864938425855440403560398848.00000000
0.22500000, 0.00500000, 364828557251434367884109001581187342990434809120325212402503197129606207293044035445270454404607844471039063497268877545771460535012584206191684485120.00000000
0.23500000, 0.00500000, -2347169822676470592213167508123875225422265065078024111235185189581766966025634081259546212890539197160135006187203964136127265731457286160866470789120.00000000
0.24500000, 0.00500000, 4423610075878658482507131027185219521821075914907113273145117096586881886886578780247233580255005630238812099201533388989495577263026159651474483707904.00000000
0.25500000, 0.00500000, -6625683066087919501287650639500021579924151827830833381439314550511461049792170465508013317839189904686521384353237096573674223817871343357186277376000.00000000
0.26500000, 0.00500000, 9015715746276799547107476289974960437122054698792080328170202485906742528068729084749854257527482403617404611873957022856260934704418596241230371225600.00000000
0.27500000, 0.00500000, -11512444297608939902236117064534592975294076839729199028881066561210281215242073915367605571662695936524201067342895711475966093388809887398091957469184.00000000
0.28500000, 0.00500000, 13887966408906410954708368009779386629885004356526745312230269624288403675562481988883374030209457112878780340459018143738425104406455283228394349658112.00000000
0.29500000, 0.00500000, -15897171402752183666232091567950860543377038369474306379308582251540907115631540581412335038502179647364887378275045672418364595945673202445751265787904.00000000
0.30500000, 0.00500000, 17350234794813714426719318288430666346583096955854708339786963031294546588873218400145775708889796900807732648691299900698197212525109180935658436296704.00000000
0.31500000, 0.00500000, -18221340140432234756946175749993659081104932686865514159712862036048572445899749261743807525069599644297368761217178687581138616393688825011616341819392.00000000
0.32500000, 0.00500000, 18620102509642247833856509654028526376258327830249108553958882466675781688614533508077468115267625447176975700123329392266876753768202991220156763471872.00000000
0.33500000, 0.00500000, -17702911863159510886571548966731385484505073904252425923689436864029272811016396469123671689030175331147410460779512704366689693327135531711086985216000.00000000
0.34500000, 0.00500000, 18582062483948364683688858081304332198034088283786598417305509901162965813496252193822176130882378217437062833611528566301136143489375288135535185362944.00000000
0.35500000, 0.00500000, -17360788649412089380647182413140292564341769658334361436509402144023780865745867622870849514772052777484596108092145705323299256971551014968624983048192.00000000
0.36500000, 0.00500000, 17884106097514423221300908849684182944932152930611414034664553319169819374002472020115432678694171099084207604597511062083443293075100054195670744039424.00000000
0.37500000, 0.00500000, -17085056181547640706509032328580793669463906236298675324687040859272818334671399664850873119961086360476772587355239535082707898548286626193417550430208.00000000
0.38500000, 0.00500000, 15844196668241079635733239108594053514074207896260804916840820581548256134671686396449550562119988057846701269933240177667888224729766167037848588386304.00000000
0.39500000, 0.00500000, -14173875957821516337624685443530547457553984168095540328857865640027981241133950866794644725923568521295406577854610679949890513741959254303085596508160.00000000
0.40500000, 0.00500000, 12190948431471819340236995557424382092834095098758404167694217838355802194837662992085358741230882269307428134224689260638648981198412574671897188368384.00000000
0.41500000, 0.00500000, -10060574930228979366732308713601072253747449077256786855372625484947849370615627280228059518273985070010317378865192851865003956551696897510805531000832.00000000
0.42500000, 0.00500000, 7961978470193161421204164277842729679733960128309867073335615759935974414215480425457613683592513045086087758959379001194025025814300871495353437782016.00000000
0.43500000, 0.00500000, -6070573626317998716848198423501623028306192318494853818717638439564600586732423915337046316944846134152169807129888419432930485221215685744710800900096.00000000
0.44500000, 0.00500000, 4520528782901429112637890405391642347103607192742281942434833555541719630163874396116205518947001243893562756968851548732421292970456958118435884105728.00000000
0.45500000, 0.00500000, -3390975120759584220539158058573581284846632051362589429870473903528954555161004325913731543350682318052416903589196070585460783737208560545705976922112.00000000
0.46500000, 0.00500000, 2718672361257504072303388631229979199437204983714237261403608307531150430953225236199230571203164106287967553263040492393547319176365887450734363934720.00000000
0.47500000, 0.00500000, -2505846934930325105092198594102925644133811936089408569341598067314244100022058763791514676428055862104413247916683294418203428079191162620693631205376.00000000
0.48500000, 0.00500000, 2711681131197086970978219076555986637247593224899144757460558574510820472682221781286858497769242879520336211836025242426545337692514050881132286705664.00000000
0.49500000, 0.00500000, -3244886773606069583452161818193366710917515946633398151461265128078579804320497056672216694684201144058580055739792661552018818422464734710930566283264.00000000
0.50500000, 0.00500000, 3972657939846671371781950945881011674243301364319403820307607834150763754131842574472995274487074147906263339297212354331700424114022837943174636240896.00000000
0.51500000, 0.00500000, -4737428492205291491397750645523415197350631426424186721298954071442902002789920554844387674528026818807524188915275898961075212977412510614266943897600.00000000
0.52500000, 0.00500000, 5374959334152430989304980106168538221715464674784265874343531174858369763923734412119656869240343678998769829116268301702230362962651409061185639677952.00000000
0.53500000, 0.00500000, -5301039473925498571638730005297971240051068485890294929048706010165690648048869804661805435438171113861157050482993628111903568268662847691625414524928.00000000
0.54500000, 0.00500000, 5222505801328162871332443225605321935444989984214315445801699997949014357643957393416114981104967130764809973793234549524319309535459363201234465980416.00000000
0.55500000, 0.00500000, -4993449670931953170151726766711888185271429147834065724798941928992659178391292646816569597945184161109180238479349967398607044246618680533525259616256.00000000
0.56500000, 0.00500000, 3551298432558336575935796774923826263533949889451845217630481051040897828153754071456484499883931805888455175579349117314950725635365693857639155367936.00000000
0.57500000, 0.00500000, -1838465752865705468117484481672525723797629887195105759303176320929978184530593534534231344917458446455911038006859782974129902486573289983873917124608.00000000
0.58500000, 0.00500000, -188233930887869673595508242341094630931752973007202553334010656104676524227793407156639720061435281931529720239443467325351980724123312000809476030464.00000000
0.59500000, 0.00500000, 3057217094788510937806713142350789031999600620683989945723238274860516711370378006972391293562339377040859521117777365928459288065673286725644350128128.00000000
0.60500000, 0.00500000, -6584488847447768032750698596563438105689729894608767405060529279067739311407296054945790669172293942702576083852101527917852848037279092875492535042048.00000000
0.61500000, 0.00500000, 10785580590369675577963348549795705942316842359265433270115961886752092596364367835028833249640920032044111143180301984732359027639914538377128452292608.00000000
0.62500000, 0.00500000, -15751304998624496754097587465785570402120891246098855814118157445173030427235552817782179654064923113103004831590302130781225208176714468961165936427008.00000000
0.63500000, 0.00500000, 21558830830223808869309026370398725918625221517924247573199568001693577976281228771726920849736906560216574422839653307533358148174154476490806716792832.00000000
0.64500000, 0.00500000, -28214211544254677223478358413340386393529525743202037141825454082671739703261323949608556351343119873432182056118290562194171113118089290040355489579008.00000000
0.65500000, 0.00500000, 35637456679340233214754690880329075767356627698761896252668664074605951288482255790865748988665143154013843420610813605403625535393619581030687139954688.00000000
0.66500000, 0.00500000, -43606372794939444390320053727708170836739311640146643256606853809946444818713008807718759549584196625388039152719549517164289347942771984797275569258496.00000000
0.67500000, 0.00500000, 51694336574715299292908296763440519510407363954299402176136503021933844437515666864955382089098740489316204359578537623022708427629970207194475455840256.00000000
0.68500000, 0.00500000, -59282206382403691607584491713065002327878084244870079337708369991586769104058804524798070686209122516773615621792853550578561337494003937570159014707200.00000000
0.69500000, 0.00500000, 65917743346130163282864754732883377118745014321558851185570443227609654619151883999351364003038125846397746141637016092481721802197775123077845103935488.00000000
0.70500000, 0.00500000, -71459587776110897740696950967343500109738360349390775639800596145362300490851926939195081617641322352935901569525180230651638503563430572177011870007296.00000000
0.71500000, 0.00500000, 75750248920815953135981157948506122185202461523002969621491990928567241886430093404211828358658541664623942204870009045271628353139546975863871113265152.00000000
0.72500000, 0.00500000, -78974755544815137892523528328732713694508361900397159711889225282027928751987793302153547732108744087420618393422416053557431950676994397872382371954688.00000000
0.73500000, 0.00500000, 81536755745452198462109368402888568423854434109260012637833753188640025767627221317989011052479802774405439418840411735739600024445932485540327685357568.00000000
0.74500000, 0.00500000, -73649518987773167369491456309623811193512702435688145316647434045571867267669227313212489095984069111187753322453675058432282086076345653333080592613376.00000000
0.75500000, 0.00500000, 77678353010984599347244667791239235421319829370737668315327090269359801542015190558041864864691830001402512366536829668012947232372486166258104968151040.00000000
0.76500000, 0.00500000, -78762129415103182434529920046542202693335510976197888493204403625918077152743756856030588178385888337275393121160905270461322441271445493685496653545472.00000000
0.77500000, 0.00500000, 80737918007070848449508160677542573906266581079969250364538920964194529373933664391039396596464521516537235545121852463284133460063350457811733275738112.00000000
0.78500000, 0.00500000, -77268280496451498641821128290879978277101547856003303429082009613734123398462847609455347405061286787925606219278076421694923924577968804407307650727936.00000000
0.79500000, 0.00500000, 70565336678579864446022732096823362141804796609999671645768805940544515761640898514658460033791241963306601787769397095544662802897608641248654931263488.00000000
0.80500000, 0.00500000, -57441203019375978814604630873760934242641589281727238799225807559916787855824375753202822861037836351262813444827885101561548028728206281678694433947648.00000000
0.81500000, 0.00500000, 50814151209003120395380199508916928501507174301398242786750132839983720507041614319947953279692451488108890219006224632383091567057203557253795509436416.00000000
0.82500000, 0.00500000, -36493641779723920159715700771938210034548192505937760483058901543880599905396367190226007500918384825611677480060946831741065768599582769787445377499136.00000000
0.83500000, 0.00500000, 51457878562369904753403420259025820819487331041724880246012493893309848926362645434458567804642565403755463421851865920547114754244124055262933911863296.00000000
0.84500000, 0.00500000, -45775572376945850522923431143243906137897268605207628249073549720855582844591785526348855417116589124900336146166606765155280021891932272528877863043072.00000000
0.85500000, 0.00500000, 38063706332182160458015863439131930359889604411036067754425490463546021730835852262276750820496755719229330357917457366594896501215138237703269403066368.00000000
0.86500000, 0.00500000, -29337481033023588235592259282839744049562959739897507656694053018541470573006696046569018844913134322585054423632703581196847014715834080319970757050368.00000000
0.87500000, 0.00500000, 20284784931697727293727738980350972510251335533677700537398869987671766284113971740623672676300116855167339268509785906733804921777590827475431902412800.00000000
0.88500000, 0.00500000, -9087246040932625274623886978027684278483372150511566798229144412853720716274613449758667629460940395433261835296671842009604996014051383850613732278272.00000000
0.89500000, 0.00500000, 2085607784696298327350361074093861447349152214722736045809366395739923463434211328391620391031724625527820672437673195706828948733703695183749327093760.00000000
0.90500000, 0.00500000, 6255104228584398895662334448595950003186889166057951157845280991341814847227436714577758568067876538325052264488182707223585294992237281144910863400960.00000000
0.91500000, 0.00500000, -12270085037512510282694921298099257686880300752497585318386998963012564293032190485708662336641762934164548277242036897584547694718961182436054771171328.00000000
0.92500000, 0.00500000, 19529943247987536757530790743607308429908942593952219821131529366037389854848387328242303454724766890415796809340112433712147597925116351172009772711936.00000000
0.93500000, 0.00500000, -27740779489507237571564658367586154638230370116109354512283347516800847318061875235538211533818693627582352381126900162223766445367064307175490628616192.00000000
0.94500000, 0.00500000, 32780628066776075712270955973235983361975456656333681576414430148529303376977612777146610178128536905768021774801184050675104306618662782909858434777088.00000000
0.95500000, 0.00500000, -35873316472126706989926835893695328029572256658439065466040874645777040581448055612680819972575213870658959502910037014912036184966844154281623608623104.00000000
0.96500000, 0.00500000, 37456551713568826616923868922893412563571833010622939992534757744367951386035608661469167492489647917293677973895660405495138130156970655946301214031872.00000000
0.97500000, 0.00500000, -36370273833392775262820975081860437929794280685877902352772183265978182337662050661313607721220084387297233687365008020240787152131199533452664120541184.00000000
0.98500000, 0.00500000, 37462703400901885081410506050655177172522784680493425083807936356338273027306262455337366556523388695670723210746785158268294674522056019115216308535296.00000000
0.99500000, 0.00500000, -36016162650927846233125676395511172509265350797111187990147278983367406267089474848329655075889330491814827230441313188999135587475451337401454278213632.00000000
0.00500000, 0.01500000, -27394502771274655164983040093754170508495310281014473778601288388987160834230458750685721632786785039110048768357234294585916380248338542725038172274688.00000000
0.01500000, 0.01500000, 24468626098933024776050134932021338006924699693533910148502947583996105114943242957278583659490336076855496015160622912282887477314598679935021035290624.00000000
0.02500000, 0.01500000, -19435312746905512074768947573450074631531387010631616364049141704017615623388003649128635495044844558380669658485714830494110717821497433755524458872832.00000000
0.03500000, 0.01500000, 15316516319255179906331015256621940725504815387257904145550627287432525582200475497176432484464218642706005633037799781221803876841983823068866667347968.00000000
0.04500000, 0.01500000, -12260614855242225504330950306764870747379893368042664904531242252799517652411586154861699606926749333688395516969326596383493405468333505022990923857920.00000000
0.05500000, 0.01500000, 10039527507964306027921877892102218510602528303288680260176569883640206884610649440117201453904238064176024440056849948803793215080228908578194031902720.00000000
0.06500000, 0.01500000, -6584614696045537302787011337000029868584830326428423719897997971094137754397983869696199384434106471278464056324861621651525128171531134076325038391296.00000000
0.07500000, 0.01500000, 4228183437304689091365175046098405048328708445150818844227127061563583396761368291717734280249970341042137105505295360677608122372281307215526537199616.00000000
0.08500000, 0.01500000, -1580210048643455509761939972444730783037919851936805848196218565870848534995386308528292480611918505479432141527145229841891783009078323228333857308672.00000000
0.09500000, 0.01500000, -662385147144156376732044916431737147595797709014410989651343721663467635282358293050080862392194165415045309068244721100344313442989209703270081101824.00000000
0.10500000, 0.01500000, 2472881580267673413654565720116835330545186632969917368738149077439591189923539657655638236859767703483720363856881284303282397678754058850042977976320.00000000
0.11500000, 0.01500000, -4018711541404697346406326462359270846975683950679715952512288316438089685162884141992680964343499794118653466984260725847261033460728168844552854044672.00000000
0.12500000, 0.01500000, 5424695281930629943660200772746813810841990012640098930651864039511376254520589498895495573586824839476839646617537073378292083458561050640196581720064.00000000
0.13500000, 0.01500000, -6474921412016765584450858939544253809978542839734225309555316248594670989625859226799286768564957529806333876505557171379801583424317196735936357990400.00000000
0.14500000, 0.01500000, 6968006132160067853316181008703275488699757184172982312744768008349429132720909434769263429327055735465941330241778024583199313149379095115944876310528.00000000
0.15500000, 0.01500000, -7028150775480408850272074257348462632627747991692001928257007983204793078719418317085718330499637356952272624027697178701030100327579305121630889443328.00000000
0.16500000, 0.01500000, 6820975294860933084939415361095539617569474357988155313689796915760896286335275256400479475217954768375326474517698436546509248317343900934554869825536.00000000
0.17500000, 0.01500000, -6401478413356354486244685678170944583765432037774903528086645936146212964164603912380485269425821428877526119551252480741305831107366500834664742125568.00000000
0.18500000, 0.01500000, 5749008804407339185627730807916627870703866291743384989480722205727869574089395767773689011295378969148403895502670002688913066301023062508585898475520.00000000
0.19500000, 0.01500000, -4818738115815870162034297964772007192005690212256934806851745026892545124621077714224004452667404031369384142286658793828628278710109692900697257803776.00000000
0.20500000, 0.01500000, 3604592339366112695562858869662066069743690059838552401887031916414233684654240978340653092200421218048022070360342690201744979476394093705419915526144.00000000
0.21500000, 0.01500000, -2136560685959832913788899550995045131330574644596115650858370371353782468563456681521907717760057183823095838596819990450778541432718248061170706546688.00000000
0.22500000, 0.01500000, 474418335973446764292354807898875868212994603736997007250293332287609257332515586334842513715107094869020016853896870989033856433940382876089307889664.00000000
0.23500000, 0.01500000, 1296870809187315185578723255097628765000338838425054033185423347284430279809829505361236021840271328747290908637355902305852987800604865264967242219520.00000000
0.24500000, 0.01500000, -3144851243896949523856255214132740549679621175458730492488758625905608056398084954472013413523888593161408462710169758799970173034472431834107465433088.00000000
0.25500000, 0.01500000, 5118240753219453314294893810153801816809891808971550726593316146085665467081699147449965318431655222196355326346305637142077537532319009468194282799104.00000000
0.26500000, 0.01500000, -7228515733623004662322864475043681691468419276440849201773793603557965876560422203602665633740611217597151938530915746450590639027234846595703050862592.00000000
0.27500000, 0.01500000, 9352965242555606001674489601145201790234168511305740037437457114560746049367975178215862512343698836621439496125157021853762157270827666252652420792320.00000000
0.28500000, 0.01500000, -11318861045034561615840761754719388612863299790350108678080448451811598824950481752014410113310252250443052929078577726140274799013178181336579390308352.00000000
0.29500000, 0.01500000, 12972793395450959846870339570899839261158742523491893204717829959822798816985101182008720446372409930592259067148485108685446819812030099771509320974336.00000000
0.30500000, 0.01500000, -14203420097205754860226223779629505605633825367158363288276016324211039467697987447057379362307031047047667395106928328176316642517073269215639113826304.00000000
0.31500000, 0.01500000, 14968869001368285515895951516420710618931043705747386260478942789949771747645466000882726727791600411527512071067045278159940046594549649875809029062656.00000000
0.32500000, 0.01500000, -15312648875269105057746833807142032251087186660853659253236714473132280705479901613389619576271779084218281098828631539515872720656304459799368564736000.00000000
0.33500000, 0.01500000, 15340301960868507094315869684063688472816939127715121899999441374155843607485527923019762545191562684094141634318685877457134362493488172467563559649280.00000000
0.34500000, 0.01500000, -15185144251329202905207427885155785224596787367553568190176477892654951798707404720701971656111161086841354243230944789778016124777820596311722383376384.00000000
0.35500000, 0.01500000, 14920499085180066455665433747365611536557016051883548840491312126227661939130328283799937375547524964558567137972322043004436884256793593442562413166592.00000000
0.36500000, 0.01500000, -14480948591553777398125902531576481275777983990713357203894251930783447127168524240152439639639700036924193197652444603379745410864018485924358313213952.00000000
0.37500000, 0.01500000, 13733225285808798740191854757472430384465857203337330480646125884695159186989212111670246124139446620012159720215629276296070885410004161565209917390848.00000000
0.38500000, 0.01500000, -12608112677782007822236807509508127898429585083515663926941022986725878108434972202284493829773485780434784163130966945513584288351275779477587112230912.00000000
0.39500000, 0.01500000, 11154013783848088317700849576039521242451486084006920480625465770134192242595405180450389425639524359762129468850030148216757096166171983634288122789888.00000000
0.40500000, 0.01500000, -9500396003088334503329172206776707388782407714552545595694411468034886408632706494892889007682075402526078365369826975732535460975161546141846720217088.00000000
0.41500000, 0.01500000, 7804280101486117551084091070051649402543096314695850771983621800398878267343963052960042928056154841589104779684479786050504057356036168895280097263616.00000000
0.42500000, 0.01500000, -6222305531444743016925807664006704596674351296999642038122362443686166391367258158251644558933034091079971981651943205816302406147391858262453524627456.00000000
0.43500000, 0.01500000, 4884376269119702148504135056498742190669411041100534879873446654566435775863639213872307149588214862703180736968937756988533374587786949382743934369792.00000000
0.44500000, 0.01500000, -3877646068965727390989019498057489059743873206999913921986518447264765197781414642121743974080718676104847211029537839325598218085694776528347684929536.00000000
0.45500000, 0.01500000, 3251227853860695342811361316433589954770039208285907649528402005344611196159606362880513033104654287119343915945621792169065767258778533089736170405888.00000000
0.46500000, 0.01500000, -3023626220272620369282126527494079870506591283613399633834778555276601822107020274633189849991075153722781221873606376453394980780030336670543887990784.00000000
0.47500000, 0.01500000, 3177936205483926020152160996118034932255032046005970516165192442031475964997918135366132495616317991295622272788179025227218886629807905312954082394112.00000000
0.48500000, 0.01500000, -3652843340953863706378640557683779544437570596327101836120079832132575119014645329389993532926404908483509753300871380428632109139118959652974186463232.00000000
0.49500000, 0.01500000, 4343966855164896944270665215299133999480294984437469333274581577850541218887090569204651494294374257453101533341394004624641502429660428861760595820544.00000000
0.50500000, 0.01500000, -5114391911861114120522418068052795398137582798529977131434234033371179162584750350364903222897649045074889216900453838420581330554738663474979818962944.00000000
0.51500000, 0.01500000, 5809696863855923817975831690426684725685602108279803433956298913796035256063446212215912629483332745181489381467837659170924868692053831645619139117056.00000000
0.52500000, 0.01500000, -6277700452402445134986547527805851071887407154222245984112555454740968728038385996841897766898150725123127706988269787291294010959489287474499733684224.00000000
0.53500000, 0.01500000, 6173179541796145938183986028566578673643499288926605252811453321967382788934496144347541046366015225828540824161424182630426224605967589704263108919296.00000000
0.54500000, 0.01500000, -5990973483771477847261862280753073849352040627720981103059944599309899234273971280845035988533822041828525684720959630811458714463788944671546705707008.00000000
0.55500000, 0.01500000, 4987273909039228814659694657684181695063054122549902703836810099099622973139983508154790356494166715581608376440942948210676618166227399085167510290432.00000000
0.56500000, 0.01500000, -3421938718192747937569235946202471970612409840490085786956317219093495918557591144180248833866185751706293763380326563809483086028912571291910631587840.00000000
0.57500000, 0.01500000, 1686211235247179211781312909189677570914622942513923829598711286922455501172681190117659922926558730796995772561431735372211672575758336980636462481408.00000000
0.58500000, 0.01500000, 706954860601639534808926948848237081158762292586567839110800481624214681994319303815524514288584963149933759921507008382584458209990727396851504381952.00000000
0.59500000, 0.01500000, -3738315235898164818551983551430418604976962517373521861782839057112106158611573163143244504726874572415395144869315275221011990291958663183691251974144.00000000