TITLE = "Linear advection equation"
VARIABLES = "x", "y", "sol"
ZONE STRANDID=1, SOLUTIONTIME=1.45, I=100, J=100, DATAPACKING=POINT
0.00500000, 0.00500000, 16595192164570405604674817584031295559900489292598224006412238848.00000000
0.01500000, 0.00500000, -11534122433238089377909946161904359847711734884978525698336489472.00000000
0.02500000, 0.00500000, 7835445019199665103950073746371662384397372434952728648865546240.00000000
0.03500000, 0.00500000, -5292341254694472762457352861464950142368315195387653805018447872.00000000
0.04500000, 0.00500000, 3427838644386827082064869028531615447896558553038488223340298240.00000000
0.05500000, 0.00500000, -2145508892639961427840309920408771051863722894617790212646895616.00000000
0.06500000, 0.00500000, 1352289992960513837719510265482567550877250199096520605628891136.00000000
0.07500000, 0.00500000, -869227105760709048732173286304043669696528292061576126454038528.00000000
0.08500000, 0.00500000, 597779282559920171567388675064702999246137830487730789264916480.00000000
0.09500000, 0.00500000, -451915991441176114324552579210639087051028318104150199781818368.00000000
0.10500000, 0.00500000, 371657780929699447820419406578117303157427392888931544926781440.00000000
0.11500000, 0.00500000, -348266298439088283364853447520112298792585304460953977750552576.00000000
0.12500000, 0.00500000, 358920459937117610020178846621431948459089484773663035759788032.00000000
0.13500000, 0.00500000, -377922749214767790942655241337435203343086789649187265486782464.00000000
0.14500000, 0.00500000, 415630819373367047853634981148045954727197411023592478331633664.00000000
0.15500000, 0.00500000, -451127563507141606492656130574988889401795691397773907764183040.00000000
0.16500000, 0.00500000, 479288001612924239376888497344315432239740432291178718490001408.00000000
0.17500000, 0.00500000, -485765170582543463156620130678203468567464834168367187775979520.00000000
0.18500000, 0.00500000, 442600056190385007199694621459763821490573981170611869158735872.00000000
0.19500000, 0.00500000, -315014322304229345483758788106048071569320920226674943379636224.00000000
0.20500000, 0.00500000, 79068769409420645678298691159812942973695217422048449305509888.00000000
0.21500000, 0.00500000, 281832246678433955053601676358539677608888485275521013814132736.00000000
0.22500000, 0.00500000, -776002308902531852766113071660578965362427512729773828416208896.00000000
0.23500000, 0.00500000, 1410327923061717392269364467670672675149449739459896224228835328.00000000
0.24500000, 0.00500000, -2190310426047935488921939885756229527542765086191509618710020096.00000000
0.25500000, 0.00500000, 3078474435970182402765114881807848249961372308124717063077888000.00000000
0.26500000, 0.00500000, -3980601479127599242865585352015643919754453636057630401210875904.00000000
0.27500000, 0.00500000, 4806433490521288906528878746739180382075008536826655684977229824.00000000
0.28500000, 0.00500000, -5524977409720338051305296509907782087872388479055467095858872320.00000000
0.29500000, 0.00500000, 6096282763105725640305260022686374035261295381308970042958807040.00000000
0.30500000, 0.00500000, -6461839053633826072486222225635535635099884538564346105493979136.00000000
0.31500000, 0.00500000, 6723684234982970929008863772215170711675803222308360368922034176.00000000
0.32500000, 0.00500000, -7022820902841311759774499412519291640537585302344969983612682240.00000000
0.33500000, 0.00500000, 7302510201489225999723650070888780305050506471227281801541058560.00000000
0.34500000, 0.00500000, -7546720786057505067809433569359668551800272761356383275393744896.00000000
0.35500000, 0.00500000, 7920077685076507541825904716592711018095759037339965090967846912.00000000
0.36500000, 0.00500000, -8543857204863467761801275332044589431444888097795002940168077312.00000000
0.37500000, 0.00500000, 9413159685664296946496323276030507782059930719054083811186835456.00000000
0.38500000, 0.00500000, -10458394454939514614769157046521715374317883920774306503120125952.00000000
0.39500000, 0.00500000, 11568734422859178450132346969875400248689795264304121548803932160.00000000
0.40500000, 0.00500000, -12556032274150964811366886941740411686599160951636281795008266240.00000000
0.41500000, 0.00500000, 13273576304300381506844017043557142606293221136638769758115725312.00000000
0.42500000, 0.00500000, -13560169869786895612887511863759024847767658362752704606954848256.00000000
0.43500000, 0.00500000, 13282729820241219256712158920915804729087443468208778602375806976.00000000
0.44500000, 0.00500000, -12456456294992081869698830349422416658817520728311616235338989568.00000000
0.45500000, 0.00500000, 11151213457676883193552205330827621350017000716201897615205335040.00000000
0.46500000, 0.00500000, -9536103223760279045615118237171772520837355628148076006946635776.00000000
0.47500000, 0.00500000, 7842655206480155076774835021190723459903228360193938375128907776.00000000
0.48500000, 0.00500000, -6271851452721964041101035122982256569162211843670217026883813376.00000000
0.49500000, 0.00500000, 4922109848546590999638927794973860551166568799168572741331714048.00000000
0.50500000, 0.00500000, -3788548148038542064298302490354722766525997082850884743478640640.00000000
0.51500000, 0.00500000, 2825318853792069522660713471629521878528798451182524935180386304.00000000
0.52500000, 0.00500000, -2009736507362226497345332916876504360682795226091662507870519296.00000000
0.53500000, 0.00500000, 1350853338448087541297519517099671756086161581359859672316641280.00000000
0.54500000, 0.00500000, -856807236098466879661290748046773959762152328254392887668637696.00000000
0.55500000, 0.00500000, 514276485620964604365432846772787666640604819872690854707593216.00000000
0.56500000, 0.00500000, -293599321575445654909866210668206117474225094511359314085543936.00000000
0.57500000, 0.00500000, 160663744040837787756980839809765734391136954784436428696715264.00000000
0.58500000, 0.00500000, -84914893633170522744734484116876065845816437060307591343636480.00000000
0.59500000, 0.00500000, 43398680211471768095618290146350036623914666199484629770043392.00000000
0.60500000, 0.00500000, -21268143067824631587352099574252353242350290132562777913425920.00000000
0.61500000, 0.00500000, 9807663738570530105021684577157066955294220059933003623694336.00000000
0.62500000, 0.00500000, -4051194412764697711895295535738841180628154924292601439846400.00000000
0.63500000, 0.00500000, 1179672879851500437039282200493112852366095473788227738927104.00000000
0.64500000, 0.00500000, 285946745279828857543108098726179810930784983814561020772352.00000000
0.65500000, 0.00500000, -1154940848231897438650976331174464360640154471430506795761664.00000000
0.66500000, 0.00500000, 1954825126797757931564709105624439102617102708520893827514368.00000000
0.67500000, 0.00500000, -3110296169906130867196751463608954350683026564016064648183808.00000000
0.68500000, 0.00500000, 5324610629113393199039452144663241039801214074128106784817152.00000000
0.69500000, 0.00500000, -10003344767257427646234274986580674334621972408300497048436736.00000000
0.70500000, 0.00500000, 19999180816898533805986514518658706513369760653719952133455872.00000000
0.71500000, 0.00500000, -40812064791811061783890215778062193793199412762605306733658112.00000000
0.72500000, 0.00500000, 82467680719318485960231267796365490800939575066152404873379840.00000000
0.73500000, 0.00500000, -162311228425037022095063879585628554990262629565979529693888512.00000000
0.74500000, 0.00500000, 308847567458440075601360619977171717378709427556048928702988288.00000000
0.75500000, 0.00500000, -566474512794076988299104518006971558592713561933623714526527488.00000000
0.76500000, 0.00500000, 1000791281233195776502204777958322088493839726919546688577208320.00000000
0.77500000, 0.00500000, -1696788835082149845710905477916669659053839737324214169123160064.00000000
0.78500000, 0.00500000, 2753332818785075407407322947784312416044914416083103822477524992.00000000
0.79500000, 0.00500000, -4316458412516835218397977154997245373436275798769853545765142528.00000000
0.80500000, 0.00500000, 3650737297480024272916441368225337435244134260569022914950594560.00000000
0.81500000, 0.00500000, -9939845204932327715088826854081702883178837198758446316254134272.00000000
0.82500000, 0.00500000, 14426812936977421979851984790211797582832862717079865117091299328.00000000
0.83500000, 0.00500000, -20081728529223934146874213379925693905315729907749917372253732864.00000000
0.84500000, 0.00500000, 22921433433843169109936180459514526365948794258437917177618104320.00000000
0.85500000, 0.00500000, -29747230599829757079124693082327660097152180191741870556070281216.00000000
0.86500000, 0.00500000, 40214062555391736724842384561508141087430487924913602219422515200.00000000
0.87500000, 0.00500000, -47479960575539848017901622920436468131231369636574270637882736640.00000000
0.88500000, 0.00500000, 55886045020380280207720540267966677817451744758145531449547161600.00000000
0.89500000, 0.00500000, -64575843453910038862978190040081364287107021686508573617880563712.00000000
0.90500000, 0.00500000, 71405912112122094838108119294032622765884194902887339095597514752.00000000
0.91500000, 0.00500000, -74780717649094818158343868606070716057572258641549888258287075328.00000000
0.92500000, 0.00500000, 64262111583719183552892598861079050053531390059259946538119462912.00000000
0.93500000, 0.00500000, -60506218953264523908684428550753561867409835016969647571572097024.00000000
0.94500000, 0.00500000, 56229575350343246438766067890680685512745206998860198049390526464.00000000
0.95500000, 0.00500000, -47815422896402081700855444321034315021254326786830806417919705088.00000000
0.96500000, 0.00500000, 46742406374539304010466307846577339727978306906813383280875798528.00000000
0.97500000, 0.00500000, -38074811014764504166479724125445512234310683388710825120445235200.00000000
0.98500000, 0.00500000, 29939605454703754574008445820100092029211727205204344917874180096.00000000
0.99500000, 0.00500000, -22742339162963472557643637614633536763499145627773397722948698112.00000000
0.00500000, 0.01500000, -20931773662977579558349645467779413179053432609559712885158969344.00000000
0.01500000, 0.01500000, 14412213808889168950855348922067914698334363088775695543476158464.00000000
0.02500000, 0.01500000, -9674620299781335762547279791293626992574020197298159268099260416.00000000
0.03500000, 0.01500000, 6290798133545354540893390208879142317247283745623829335183982592.00000000
0.04500000, 0.01500000, -3947250114948757711233022243771398380728205446684561331275694080.00000000
0.05500000, 0.01500000, 2447696708968429181467526570968762234151134929036194765281951744.00000000
0.06500000, 0.01500000, -1514836733872559638498145046058093895324723912168531749962252288.00000000
0.07500000, 0.01500000, 961663911613112343364969584886396932268878016404268073802006528.00000000
0.08500000, 0.01500000, -647499573501590305825704013124693225509148129252715376089759744.00000000
0.09500000, 0.01500000, 475662128216817230995884344891345307754026950591702506970021888.00000000
0.10500000, 0.01500000, -383679790134103449924290531200755225792568017413017795578298368.00000000
0.11500000, 0.01500000, 339892574365274681101731045826351051149956697602167055897853952.00000000
0.12500000, 0.01500000, -318503287885795515258167368346938898726535767716054037027618816.00000000
0.13500000, 0.01500000, 309937406642414371050587317839021548148787423241876941876232192.00000000
0.14500000, 0.01500000, -305467352953804591589647326234857320378594205826636818075877376.00000000
0.15500000, 0.01500000, 297308820458104328428786132927112650680287539107813846442573824.00000000
0.16500000, 0.01500000, -277979390564322659943865663477427872125466526380269284209197056.00000000
0.17500000, 0.01500000, 233810310139035725018014165767832753861391466414666307931734016.00000000
0.18500000, 0.01500000, -142241267595134159866794879390428967638550072140062689033453568.00000000
0.19500000, 0.01500000, -21275203418804320292323864982731833548649584704279994595016704.00000000
0.20500000, 0.01500000, 274152412902344053560874890291913038342341448692942042411565056.00000000
0.21500000, 0.01500000, -623740074053783614315087000121938631488899619613559486700060672.00000000
0.22500000, 0.01500000, 1074729732894511252476876038003350822206156746799854424814518272.00000000
0.23500000, 0.01500000, -1642196854400411345825535682496037990444063546082341444527325184.00000000
0.24500000, 0.01500000, 2331675290468712388315810264759198670258890134129867542312779776.00000000
0.25500000, 0.01500000, -3095871132964365928708522792655123089798051418711680556552159232.00000000
0.26500000, 0.01500000, 3848097954825692315670678092623970780823863415348918513966252032.00000000
0.27500000, 0.01500000, -4531266924479056017874245268553867293212970924685927179381374976.00000000
0.28500000, 0.01500000, 5133518136276917208867138581798156029933061754254037256247443456.00000000
0.29500000, 0.01500000, -5598160176949489927337420514266681365439279368274842841235062784.00000000
0.30500000, 0.01500000, 5900555182980645565483468238752954314891702294806082893211762688.00000000
0.31500000, 0.01500000, -6173831412632358364000779815970875552354327424602721255052804096.00000000
0.32500000, 0.01500000, 6477256593784835997354947380196307787732448283940750498283388928.00000000
0.33500000, 0.01500000, -6781409611615633993316775037471606024914486053171416412412968960.00000000
0.34500000, 0.01500000, 7199219367929482794303385124804338050215604562176337859131211776.00000000
0.35500000, 0.01500000, -7861549218999649389297981825420190029973221928620827735754801152.00000000
0.36500000, 0.01500000, 8779764546128190504265501764243769388049287488338679820659458048.00000000
0.37500000, 0.01500000, -9895106183123064524474266761626582676391857668687370113333067776.00000000
0.38500000, 0.01500000, 11121481350780423271274362408736553411375498051885404995595534336.00000000
0.39500000, 0.01500000, -12333168199755209698243004530101874252106675244812640114496765952.00000000
0.40500000, 0.01500000, 13337378937176634524468043671161527539208019987804289899893358592.00000000
0.41500000, 0.01500000, -13948893150914199218084618360743400344967556796846272827371814912.00000000
0.42500000, 0.01500000, 14019043573476195050843449244361825972813424445449917211221164032.00000000
0.43500000, 0.01500000, -13488086449178357049288707192044926307938889656886977384452980736.00000000
0.44500000, 0.01500000, 12376172868181014447834083725348356962007007232455398195598458880.00000000
0.45500000, 0.01500000, -10824520439150564447347507128072241006188577413107590967670603776.00000000
0.46500000, 0.01500000, 9067666221515290071575616155487594140620457846440625999649439744.00000000
0.47500000, 0.01500000, -7336465861667119064137752824245705926523247535704695350453338112.00000000
0.48500000, 0.01500000, 5784104245735674510082550127267142526651090400409650542915092480.00000000
0.49500000, 0.01500000, -4463872077717905134831752069455021342761944634140763188287766528.00000000
0.50500000, 0.01500000, 3354620730034054084576742348428192768595708244488408955860549632.00000000
0.51500000, 0.01500000, -2422803002763820194422934309520609727637778868213849939945455616.00000000
0.52500000, 0.01500000, 1662174390585475117658867804591734766271470258504179293639147520.00000000
0.53500000, 0.01500000, -1078465961518365267607016323226630448713735296790722872547999744.00000000
0.54500000, 0.01500000, 662439237845572218580590264856861390514164751286849962407624704.00000000
0.55500000, 0.01500000, -386742153371381766203928404988120818395614981399168972832636928.00000000
0.56500000, 0.01500000, 216154148621080285846148033517401067374630693360342326533160960.00000000
0.57500000, 0.01500000, -116611071489188494052045260937789426924767152974614950263652352.00000000
0.58500000, 0.01500000, 60833674718875267363661362695540594783753782824713624821432320.00000000
0.59500000, 0.01500000, -30344732217240321590212681778215294600855868524454326376071168.00000000
0.60500000, 0.01500000, 14027144723547591027313095610957515642823965481101490021990400.00000000
0.61500000, 0.01500000, -5453148263841838018047005336749312205003541326264904523448320.00000000
0.62500000, 0.01500000, 931007774340379589348880707592627640617090653057546402660352.00000000
0.63500000, 0.01500000, 1581750222256563128491136990684439998740091570524254864670720.00000000
0.64500000, 0.01500000, -3133867646665072838007199524113828582837451881747330828861440.00000000
0.65500000, 0.01500000, 4322678731681071874657426182479871659403192194563308947243008.00000000
0.66500000, 0.01500000, -5585330154140042944620146379632317135651547252628176850911232.00000000
0.67500000, 0.01500000, 7543735293893494197117420706280490554583576538253603280781312.00000000
0.68500000, 0.01500000, -11461112007191757806918702283373618757349520622287714447785984.00000000
0.69500000, 0.01500000, 20047991855399528938344956444966702821561679809085265516953600.00000000
0.70500000, 0.01500000, -38829796643884581600147493570203821394936262157666987330764800.00000000
0.71500000, 0.01500000, 78355063099827830762447704161207747148445035678576994219458560.00000000
0.72500000, 0.01500000, -157593856263963301691568960844344982251513429649073670912475136.00000000
0.73500000, 0.01500000, 308808935841323775250314751491046941430922616334058942959190016.00000000
0.74500000, 0.01500000, -583923620278107131371325854824619098687221053863027019907858432.00000000
0.75500000, 0.01500000, 1050798959207615419137773887660893196366320844475254172138078208.00000000
0.76500000, 0.01500000, -1801571747877321773611495589361258584725297324305564899202826240.00000000
0.77500000, 0.01500000, 2969264552110139969000868404991720623125452394384596081043308544.00000000
0.78500000, 0.01500000, -4706264582197478874435221624030614082294723979793128556924502016.00000000
0.79500000, 0.01500000, 7288791225495502942019901732214099952686310003864230237764059136.00000000
0.80500000, 0.01500000, -11225403746116286606627042146314734463654175841610141316807655424.00000000
0.81500000, 0.01500000, 16948331950012715049228661557514005414012574050412681512395735040.00000000
0.82500000, 0.01500000, -24468241109553645839248702399714013456800291978138572484799102976.00000000
0.83500000, 0.01500000, 33401267772431516160585493216010476521549775600062073381163368448.00000000
0.84500000, 0.01500000, -38910279383132147423767555268460567510614525038047700359959281664.00000000
0.85500000, 0.01500000, 50938337771035813337970351706439637871942776440070914267051720704.00000000
0.86500000, 0.01500000, -59866809497016285551020380905419002419100250294082128215365648384.00000000
0.87500000, 0.01500000, 72257652981314490266069492277196121303295180419540050670096744448.00000000
0.88500000, 0.01500000, -87301419867162171258374896871723635375040187057116807040224722944.00000000
0.89500000, 0.01500000, 100792120847159080004697133543654241383659999987092872290086420480.00000000
0.90500000, 0.01500000, -109383433562213029094379702160649455953216959929217063263399837696.00000000
0.91500000, 0.01500000, 112180544543499937265863851805174904371865279156007327012975804416.00000000
0.92500000, 0.01500000, -99055187857355101958046626696550095648695404903817344869856182272.00000000
0.93500000, 0.01500000, 100604489935475751827686962818287937698222456851872501481714221056.00000000
0.94500000, 0.01500000, -80254068190493685685400553036816862431530618765688905143360159744.00000000
0.95500000, 0.01500000, 75022398543682675678268864021432650398286492695702161163508776960.00000000
0.96500000, 0.01500000, -62901350081478781997284743234640193226668939798215799658799693824.00000000
0.97500000, 0.01500000, 50922753552475983083439536268887159881828451958470156710395772928.00000000
0.98500000, 0.01500000, -39327015494582370017410956116228267446459708370173502349740343296.00000000
0.99500000, 0.01500000, 29237656904130464622936590156009125939245773294671864170383671296.00000000
0.00500000, 0.02500000, 24867297781813825692399442489906954513026849010532813088697090048.00000000
0.01500000, 0.02500000, -16751341331856786020528080416972391277155461530022430270373756928.00000000
0.02500000, 0.02500000, 10856529287099375469355181414704739754601307678354684376460034048.00000000
0.03500000, 0.02500000, -6828538319245555802202186027438095328838145862295950456363417600.00000000
0.04500000, 0.02500000, 4253472629007334973708771542764911091678832351040844423199981568.00000000
0.05500000, 0.02500000, -2624755112902005547574115812514145267573435907341135418530725888.00000000
0.06500000, 0.02500000, 1607709948374522088731874348093756772534299626860141440382533632.00000000
0.07500000, 0.02500000, -1003897836016459829216271029019080871576136316795327310047739904.00000000
0.08500000, 0.02500000, 665825967322892302513234778678325034873481980029544477954670592.00000000
0.09500000, 0.02500000, -483710106124442351599160994446218467521775155170735972228792320.00000000
0.10500000, 0.02500000, 384950152396188079349116352871826165739597267473293707074076672.00000000
0.11500000, 0.02500000, -327111662682607952863954773401475053995433917952311177041149952.00000000
0.12500000, 0.02500000, 288835874499403736781238432500811029611105213496563292990078976.00000000
0.13500000, 0.02500000, -258548719347963845545407643036260416558761239808904266432643072.00000000
0.14500000, 0.02500000, 228450912570503680883929064008532819841971410666094749991043072.00000000
0.15500000, 0.02500000, -193044025975362693984483179938620143426110129344223385831342080.00000000
0.16500000, 0.02500000, 145631914964587526978256230789978172676752698797534504944664576.00000000
0.17500000, 0.02500000, -73166454785684348303574900121486636752604228617417684345159680.00000000
0.18500000, 0.02500000, -42955352929638116038711293931897077938029530119703467065868288.00000000
0.19500000, 0.02500000, 220113803589690664963231961363248831161247021732340191337644032.00000000
0.20500000, 0.02500000, -467516702179981690317457399433534101352353324305291531413094400.00000000
0.21500000, 0.02500000, 787084665970969662199192661610112095129699683274055958925410304.00000000
0.22500000, 0.02500000, -1186948773696434571979528949779695779565934686021708960134856704.00000000
0.23500000, 0.02500000, 1686695309060980283904755338316230106184699987964186629198839808.00000000
0.24500000, 0.02500000, -2285056106644605790806973788661874945052246673777266929161994240.00000000
0.25500000, 0.02500000, 2930422526272307580612115086475882973199448207958139453298442240.00000000
0.26500000, 0.02500000, -3555566052944248800094883057658301652343683073880700195872702464.00000000
0.27500000, 0.02500000, 4126218445722666078986653000573476004220652826590567245631455232.00000000
0.28500000, 0.02500000, -4623755995848142992585606537086916590158268014372322016424361984.00000000
0.29500000, 0.02500000, 4998711220188967285605072473377180717285744957653062865081335808.00000000
0.30500000, 0.02500000, -5277062579174611188292347231298961749436621308866664779032297472.00000000
0.31500000, 0.02500000, 5556989863770832442229168905623561880425322967384232475796439040.00000000
0.32500000, 0.02500000, -5869774500111440904206259615955630563907142963678929586839617536.00000000
0.33500000, 0.02500000, 6290200151278158880032732065453077777945111770294857769542483968.00000000
0.34500000, 0.02500000, -6939031552985348971246685437997740783811739845736520874127785984.00000000
0.35500000, 0.02500000, 7853928392109198218910181516942350370326159728829632946267750400.00000000
0.36500000, 0.02500000, -8992809487037921842070337906473696186913527995549353613184729088.00000000
0.37500000, 0.02500000, 10280367052519406222641682121426079505066163236232483478865707008.00000000
0.38500000, 0.02500000, -11622861567493387873930338821836722832293842496289530624602013696.00000000
0.39500000, 0.02500000, 12856819204635341945650197732917951846536406248226509364970651648.00000000
0.40500000, 0.02500000, -13761772784514089613257604625858294617303499288409636854621536256.00000000
0.41500000, 0.02500000, 14160497523149790056222995721906012300389006403462854983613939712.00000000
0.42500000, 0.02500000, -13955055468450464638602319243883202256910669492426895305316761600.00000000
0.43500000, 0.02500000, 13114628921307533358952754648089315169843085819144650235723120640.00000000
0.44500000, 0.02500000, -11728358116780281667220096031726256329704995981089652195429711872.00000000
0.45500000, 0.02500000, 10019120914978515899640635704576014533523808626987246077066870784.00000000
0.46500000, 0.02500000, -8236310748295377521744763778941713129805675589419875674057867264.00000000
0.47500000, 0.02500000, 6562891789832001785479282513227334887934437821331027235906256896.00000000
0.48500000, 0.02500000, -5097235664804845362015697343350754909646275654879799550660313088.00000000
0.49500000, 0.02500000, 3858370056801651679830759712763886105557835221683930288980230144.00000000
0.50500000, 0.02500000, -2821654857885991909503555730614398964107167017727474303124897792.00000000
0.51500000, 0.02500000, 1970606047879277438202677060359488774182302829963790010172833792.00000000
0.52500000, 0.02500000, -1305625942102256021429786032576924718661098963154297832714797056.00000000
0.53500000, 0.02500000, 820000813058432600799085136563814247442490261222372073061482496.00000000
0.54500000, 0.02500000, -489560630231406780482033976329889442729181406183480469626028032.00000000
0.55500000, 0.02500000, 279664175477850849680931759612887268567227963790693096981790720.00000000
0.56500000, 0.02500000, -154174332607079926743534520085088458436695162638990096323313664.00000000
0.57500000, 0.02500000, 82173555644599489369120644541425446035860588553333367862460416.00000000
0.58500000, 0.02500000, -41653900141359331543186602887053414500645601485698606714322944.00000000
0.59500000, 0.02500000, 19040549601109932030717964293179147102974169748425390342275072.00000000
0.60500000, 0.02500000, -6400522534130751047538665135187605126205417873503786259972096.00000000
0.61500000, 0.02500000, -902567319719858214942790588594359161538194587016378284244992.00000000
0.62500000, 0.02500000, 5466642587895036875465394911656867703156910633952026933854208.00000000
0.63500000, 0.02500000, -8624851375736895861594723069713415349442699248695050739122176.00000000
0.64500000, 0.02500000, 11034900890842433560751342190569671946760644289385879983620096.00000000
0.65500000, 0.02500000, -13098177619219358761308410344346291062012570523383218529370112.00000000
0.66500000, 0.02500000, 15300456426822874587581964428806763351776335422602552922865664.00000000
0.67500000, 0.02500000, -18674341926359867153933874646436599607992859405111941383847936.00000000
0.68500000, 0.02500000, 25627669511201433426227020924229807178562206402560275406389248.00000000
0.69500000, 0.02500000, -41402782436135864829579882631888028769059695588192937576497152.00000000
0.70500000, 0.02500000, 76510912265130428048722872281381274643921310660784972323880960.00000000
0.71500000, 0.02500000, -150626346021823695855594015132234448745871212408245003346771968.00000000
0.72500000, 0.02500000, 298429729653126677042807995692139579449170753501315428759109632.00000000
0.73500000, 0.02500000, -577592960601944005521375785233473440294497730648194538325147648.00000000
0.74500000, 0.02500000, 1078691772489269896202861494306474958846232612534106384727277568.00000000
0.75500000, 0.02500000, -1880077403704994601791452040300731901254930694378871805926440960.00000000
0.76500000, 0.02500000, 3116779364631642345156261443287086853106707751786997527668064256.00000000
0.77500000, 0.02500000, -5084313063507822838127463098518600152204851222520571518584356864.00000000
0.78500000, 0.02500000, 8049216446605430001086844427543525135143901175983948151818027008.00000000
0.79500000, 0.02500000, -12443571490749024821984586535718787353163460483630525487022866432.00000000
0.80500000, 0.02500000, 19062360246709121425092063719847545476345140423755806745649217536.00000000
0.81500000, 0.02500000, -28373361551405910454642705112553579940314661589938897975429300224.00000000
0.82500000, 0.02500000, 40065141450726735134585886555418649031148081954796963709048586240.00000000
0.83500000, 0.02500000, -53146291737629429525532683403797863544169904515187025897425207296.00000000
0.84500000, 0.02500000, 65404902291011681130181311082295111163416913816543156572488990720.00000000
0.85500000, 0.02500000, -64254787163619340675082269551075173056228875566936730419893108736.00000000
0.86500000, 0.02500000, 78869988806297108237000989004768719684872784835332736653486718976.00000000
0.87500000, 0.02500000, -111402751247268236479717906074577444690740744833375650198990094336.00000000
0.88500000, 0.02500000, 132332133491003891415358133230890802652739748937185619221021720576.00000000
0.89500000, 0.02500000, -148369041977146141235778525853943247337809904698860672029112139776.00000000
0.90500000, 0.02500000, 157174910805095511022832620601366899327890617241638559592942141440.00000000
0.91500000, 0.02500000, -157985362500487884293982854736539163682232850565812532159390416896.00000000
0.92500000, 0.02500000, 150044249402109716001413641922488862003750362397640778612163477504.00000000
0.93500000, 0.02500000, -134299579855111353389148659434218388709563954922674748445631184896.00000000
0.94500000, 0.02500000, 115723293763633870771195067561369789753191305996214991802393952256.00000000
0.95500000, 0.02500000, -98214600188759522896859432461845369332484146393502934904573263872.00000000
0.96500000, 0.02500000, 80769943316041084621789655234968878287303320572266975023465496576.00000000
0.97500000, 0.02500000, -63299646405509862744026028227219010564245555066813654231764959232.00000000
0.98500000, 0.02500000, 47983032033186224231057860986781881257630776619695119600734699520.00000000
0.99500000, 0.02500000, -35316146509189620428051600376127136783482492038510597199334735872.00000000
0.00500000, 0.03500000, -27944541806184241536576412622159801435675839444775106043820638208.00000000
0.01500000, 0.03500000, 18217190594771130720762087499065548529931613483992038240996556800.00000000
0.02500000, 0.03500000, -11426911624841871508905434559624963250262632108119793491324698624.00000000