TITLE = "Linear advection equation"
VARIABLES = "x", "y", "sol"
ZONE STRANDID=1, SOLUTIONTIME=2.6, I=100, J=100, DATAPACKING=POINT
0.00500000, 0.00500000, 9339763607482881002138848063860546042022661566566147482972557245968793578563902195137275909776346637512026935802200064.00000000
0.01500000, 0.00500000, -1289824005927776811026296008088710474025355461300787550923515811817908073578936247350193932375069261793720915428638720.00000000
0.02500000, 0.00500000, -5771457641410193839060285373441430453778769187478646120436259782408450271785338613764315956833931406831345603237117952.00000000
0.03500000, 0.00500000, 12832696583079946785021499606091702508659999007203341588413774167834721080712794081048165072387122383945427878959644672.00000000
0.04500000, 0.00500000, -19400021662225761955329748211235916250061700851176283865694944926941244182800194588433271255342176930862809369781731328.00000000
0.05500000, 0.00500000, 25773290732935731306521777292674171725993106809796964925513561386918491497806115420716624197941928921874258358968516608.00000000
0.06500000, 0.00500000, -32173296264387049156124076988889155922401025652555788484343930202112644022705974717093370965500281481317827621301518336.00000000
0.07500000, 0.00500000, 37931117681242697270579448348323670139155108325699165635124057740176823131690971956946861446021906827871299969530986496.00000000
0.08500000, 0.00500000, -42529871309557112876720442312041233262506629189036471800160629123409562527620015045261825446955434173810905383654391808.00000000
0.09500000, 0.00500000, 47079354292002211128936682197018810334849442076354789371846675659493172831289015731108395790501245293880528676853907456.00000000
0.10500000, 0.00500000, -52488860677693558026028399558389772731711484711208259495926039444612726494357254680755919351412888457398521369618022400.00000000
0.11500000, 0.00500000, 57094772163994285850170239880020376774404343814847268410975055524235938217111703286952987246219999234556698254074970112.00000000
0.12500000, 0.00500000, -63081059910701525399026865006093649187856467806903455630556597904319227593791615781436716674473961610413886096042622976.00000000
0.13500000, 0.00500000, 66500122707215678537151308461200909683327490666475728083953033319890615071212742834205701821090314115194498276292296704.00000000
0.14500000, 0.00500000, -68747402924626415989981618729729769877277698791237368508624216720651932251739954531375689011458614914004719053024788480.00000000
0.15500000, 0.00500000, 69740661448117535874038037606694174263168954709996617230954370581851781894815671340020285727941727481150650437689409536.00000000
0.16500000, 0.00500000, -69984357533364986702540414100413334454730759552971024904771203418722851315532098498186548661416245473245260860461416448.00000000
0.17500000, 0.00500000, 69788462637962572650989323284209367913639663563696548559525513743598502357134376755921177909546414781653170066022203392.00000000
0.18500000, 0.00500000, -70426034721814733283765150030112678840588952203350550395741879980096545093171799205545002573821672919440589507377758208.00000000
0.19500000, 0.00500000, 72882948708565791334661999540729871596262974323880046581143130602101345708141005244457270483813804235089214831490760704.00000000
0.20500000, 0.00500000, -76385831060673555248179046288289096454584040354964984552982525814295955128878853746213436086759881397598227839804506112.00000000
0.21500000, 0.00500000, 78635256302930774172955539232310376747356828294264127408092249547880072449346935422909834191718751048765406771968737280.00000000
0.22500000, 0.00500000, -77416841866977602536646679432104951661406077435917836011483898116311371309867754519185136806005368740405775580260204544.00000000
0.23500000, 0.00500000, 72029879140645458779666682035702793549713131624598036575407821865233163265979788559626646653156369491260366057126232064.00000000
0.24500000, 0.00500000, -63568826922340943541535523141251545167905028628175185680954978149160282473838556728649363764608613832226974575032795136.00000000
0.25500000, 0.00500000, 53889282339200236747039420944104480640215628668907196114951635328898118536793309313735673634607699611126094265753534464.00000000
0.26500000, 0.00500000, -44294902549360894472570159925159639515562209805628032653103058950566336609344051216351308200921658874998290620950249472.00000000
0.27500000, 0.00500000, 34850929986792505813193723892580324870415641585901932876727741288923694589701581450319245782785620111456355490644099072.00000000
0.28500000, 0.00500000, -25283148798669155662187576049464971648940503369357093085600694062729544866981049045751588941201020572613311964274229248.00000000
0.29500000, 0.00500000, 15264887107499554860097857004549543857864517029478420398899645633897568502220633210969118378988529946069866005301035008.00000000
0.30500000, 0.00500000, -4741958848434851623302006158024690437365859921907663444671049501876799449425461063423299737128841356482181391359934464.00000000
0.31500000, 0.00500000, -5767258810014858197127071292996581382328033843248865478736668894131446005260913524414050217412675845416522536265449472.00000000
0.32500000, 0.00500000, 15913825418891824339379108783759446888587467281210413480144895809647934186027088918594637726315619255739813024466206720.00000000
0.33500000, 0.00500000, -25263688923044927499591642709350318294583816247454408488884060452729009531844733781592344161644722254839001473592852480.00000000
0.34500000, 0.00500000, 33059399610659898034550142925717649331714433390262691966143967681552617465049054709580445346187238090413581104492576768.00000000
0.35500000, 0.00500000, -38664857974999385083095157151292510250119672166795054154745066623164027842266819998042518687453774025214392413253009408.00000000
0.36500000, 0.00500000, 42043825360320720269548414774337699285448849189368236795476040533188277602021364706545656602012261200192205482239197184.00000000
0.37500000, 0.00500000, -43411180951088325898308515342925392721909671723070809183357373577293417716515285113589231623732799272911035447405182976.00000000
0.38500000, 0.00500000, 42673858309363568442589697580083274796176449719693405846514263105525488043510678749203374143447960652519107501150437376.00000000
0.39500000, 0.00500000, -39095890071805781736109103209778165616125265142159740672364924602603904480377017593551564204760434442147300695426990080.00000000
0.40500000, 0.00500000, 31280162647481357005604432882379644252688298262011216550022925044262076424156842395125641695698940772638957331202179072.00000000
0.41500000, 0.00500000, -17726855269070473030425025343389841638575469087863217320478671263042059598952659410124791995550390404112584515950477312.00000000
0.42500000, 0.00500000, -2865863794465824573898822135176037405656577519058399041622292917293800326950315773772962090671387503875373311262195712.00000000
0.43500000, 0.00500000, 31886666404359224963478951476498559879400109877101894967987947198102077136990765835160767309822474353494490628170448896.00000000
0.44500000, 0.00500000, -71380480791552934615015640364624773042912399844325432717570838653815257055782840355419641069589643075205470280159854592.00000000
0.45500000, 0.00500000, 124560637291795666225045621062891493188494083576982548953680504385566108259014426530631515091716394149052878389333983232.00000000
0.46500000, 0.00500000, -195785618665548663968661462998863083905936385293278842666042775927854665805064771364704573806982860250882786321219190784.00000000
0.47500000, 0.00500000, 289567939851019128003917320050749440958628984015369849195415847258237952286985693622283855502557876960577025860486299648.00000000
0.48500000, 0.00500000, -410209398816903090862015834001678880501442529451430994615487932793102632464740022378063592916609065561522193310194597888.00000000
0.49500000, 0.00500000, 563122689797860531142118892191276832426419533631247768793717861044963872694078148107287706020444722428989979131591524352.00000000
0.50500000, 0.00500000, -756252244369408824712029329770499560141930574309935554237494236948716959180891801379398061215568944655420229772755599360.00000000
0.51500000, 0.00500000, 997606538001343830876364650623714698490940830531933925746190157479297119906853452436834365808008320193570409856307822592.00000000
0.52500000, 0.00500000, -1290425664967144978881581110708789659979063356658546561420584765259920965550344214734095408707899059872699003343623684096.00000000
0.53500000, 0.00500000, 1632963304826288449030784013920233086434877424013377265844192704652100298041736864643040497441345590198798099574255779840.00000000
0.54500000, 0.00500000, -2022044912841240552817457308214641020556729228380682011659354950986996914288526915072101360064205575826806754592065323008.00000000
0.55500000, 0.00500000, 2452050978441736312792066691752448241667150421594292797821148036173063483804558344833706623763489714338912858294714368000.00000000
0.56500000, 0.00500000, -2911522006195880533243953681146409572037747199615782375363293296885132199723781979387987238140749063891375699215605825536.00000000
0.57500000, 0.00500000, 3388758778314336105110839662843094185471359983285893343037642403531009173444138812955534125079318166943644567823424946176.00000000
0.58500000, 0.00500000, -3882810099573749392827339721532688244831155336810856815892390638212365587941883648257008849526548613080854441472598999040.00000000
0.59500000, 0.00500000, 4400716190312128099935385299083086543758943168102835266429703244814379798248277632193553076541724086593487623965970006016.00000000
0.60500000, 0.00500000, -4930353492648321385397652892886004633231041705436089903757586566573892378679223191735290027194053336706318919967375884288.00000000
0.61500000, 0.00500000, 5429639626720995160487485611622258545835655522083828512858762812781417224643152474551843927734338882984768347247013265408.00000000
0.62500000, 0.00500000, -5879139195824339279255066286317762601970025932154142636688333084189468572934453731944230295438541540785762244047440707584.00000000
0.63500000, 0.00500000, 6301218098871129067147669542603876181884702382145389192563197245146738181558223370425046756521417548781211512164327620608.00000000
0.64500000, 0.00500000, -6682920612461960775775352996464824425955129742394730181651289385724738843620630244786257879165909314795274005866031874048.00000000
0.65500000, 0.00500000, 6958840124029225165290707467604087806436653212478387029075957579858643664369993337412868613525465560927093962070690889728.00000000
0.66500000, 0.00500000, -7073042140205469867534184711328549044218907897645372089109029683874561888190365953838341514076032611724110165948745383936.00000000
0.67500000, 0.00500000, 6983412546993020173791283352527583664503226054563064704580592999616974916734881324373134917256849133807765729861315854336.00000000
0.68500000, 0.00500000, -6656967438325231458109492937723382707346572661199658725060547674346929181728216734663407524920620503502801099467557699584.00000000
0.69500000, 0.00500000, 6129912355157878419188526309183627604990359636973125598971095726043804245060597479720978014579570137557859043881944875008.00000000
0.70500000, 0.00500000, -5521424062742099359172785972396005701171115879834254206207108351735794812441472825127457642428234335851367806519572692992.00000000
0.71500000, 0.00500000, 4922746006693962220785025557546903837955779013929526181497641969196927347473715861376170866026467704668793557494559408128.00000000
0.72500000, 0.00500000, -4324149100335708276876644491273838734602673077699710292255119956156436094658657357157227080222152406105036858062832402432.00000000
0.73500000, 0.00500000, 3699150018647160718952198246051525047246442645976659359170651802449557777085836332483239190422133265266709000574178689024.00000000
0.74500000, 0.00500000, -2733729172246727593971582393387528429386528122530215170519987103236522170850535507422889509806887804194394785102157578240.00000000
0.75500000, 0.00500000, 2175492342355823636545205412904148457080382436675897046084027059906815921831023113250595425311294863825586404568286101504.00000000
0.76500000, 0.00500000, -2024284210070079847348706896385775590842958877431660794069552514624430105638189569147969302190737327459748546353601445888.00000000
0.77500000, 0.00500000, 1546585506643735118034168305853986999814127697713153240804295142800316893234259367165821260771768744436124626186376577024.00000000
0.78500000, 0.00500000, -1092727100183925268401213506620047307651305500188825434527713677886538479032835068343259975385002946008405237131613569024.00000000
0.79500000, 0.00500000, 715363877399234575588872001447301857859250091260091820317656239436582151399241822383297683195074583354626449346356314112.00000000
0.80500000, 0.00500000, -431068715917477842938525724572081866930473685312597500562520005887814722443625495749683730386020351188417069387509399552.00000000
0.81500000, 0.00500000, 188167393706672658095717028138891701592319129493726452452008156187885893680122987099463345332727441178294533815174955008.00000000
0.82500000, 0.00500000, -18352037330108661635288487399535913808713305301811539615432127601607317534984789111553626941096837378544014105333727232.00000000
0.83500000, 0.00500000, -80451648858029733916259093750337082133692590740612842263044000591835028676752604902247266101745837228989195497884352512.00000000
0.84500000, 0.00500000, 152318888271582324500035694667665365563187570816412431097609755232254268330102425157823472163931467338726002595672883200.00000000
0.85500000, 0.00500000, -190756666491790512847825177346695932205449825595545886137116990282393444323750749755277131709963828129438695830914596864.00000000
0.86500000, 0.00500000, 221477644709788045473155138414350417368570125467324597674716306819186673478952149050792567227467199459586639140390699008.00000000
0.87500000, 0.00500000, -237493149668978692102491110678054842756121826308872073136790847045952770635909006653934582356229095950699078040202248192.00000000
0.88500000, 0.00500000, 231929713467486120829528539504369587060472333245558750574234337577716100584030372348995144053938617582127533444376297472.00000000
0.89500000, 0.00500000, -144257831004554637609910283870883946792400320102582658774694904620382928940983356496506189861383715710308779181457014784.00000000
0.90500000, 0.00500000, 173603630134436479703218771380596827953901752621269420305186990411568812647339226363316949226036087195115463367332986880.00000000
0.91500000, 0.00500000, -103496795328502639290494437023152825138137817173605193355415045549532667467620437879647012474682741457555451315516080128.00000000
0.92500000, 0.00500000, 143247801106474953694585143111799413472329958081528876742000544333870564414011424819462509588978894708275959218290294784.00000000
0.93500000, 0.00500000, -120665064836514815349530318403626914711928848315855878782962666630602512686367469513350024915010526103588983076139565056.00000000
0.94500000, 0.00500000, 98384560263085063972879801252818335821289471830855928455940736157515610320181040706407082566397384404629761175268098048.00000000
0.95500000, 0.00500000, -77553183407314612215982764126915242179969473632748227795422532289484255933951933406256072710965528483541604595966935040.00000000
0.96500000, 0.00500000, 59129778196829152064606481117400500454314880818132771948382344476467689198757833020678757951238692980795584952840224768.00000000
0.97500000, 0.00500000, -43313772366103154462234776457286304727175130814023619946259243227543688811753765034509814529182824171550090019238576128.00000000
0.98500000, 0.00500000, 29887376991699611068755502902439009200785179874036876798403429757587313844318811393800280779707316440755099342295007232.00000000
0.99500000, 0.00500000, -18583516667813290271971413499649267928005863648280204781575295469581094478271772530809865432159715981077686337757249536.00000000
0.00500000, 0.01500000, -15677196146911992571960985813802463819800242229548646669978441392364398709717770172328209631751105037310587669898592256.00000000
0.01500000, 0.01500000, 6377741148941370142031342678924805747999889234234390931340565555508018605924729696760754536040035835580108589041188864.00000000
0.02500000, 0.01500000, 1944187421279880252182127286930631805159624488540696575939080453194387907401804088831773347520039208340789627535228928.00000000
0.03500000, 0.01500000, -9634202491328001485448697155337283789877130162522671449598871841804233031754240666696796908694602818329632749700251648.00000000
0.04500000, 0.01500000, 16501379716935014249747115093266037094197643905845278578929323475436288982986156203304723835369182989845322086588874752.00000000
0.05500000, 0.01500000, -22479671339267840140584290386815475621332682561505261024516393700170112116585055684647168334423614514002293968850649088.00000000
0.06500000, 0.01500000, 27532601056760562642417329039195500270079536755263417748793230349407089651597127668989095369398834197011062282935861248.00000000
0.07500000, 0.01500000, -31420095302772434133695256969191511952341420892158900639552175335571055741204542295213162097547257418226086197004861440.00000000
0.08500000, 0.01500000, 34855661710100753465496403043876112191139342007173967476504900005191533827081264798661561285709134130523673461222539264.00000000
0.09500000, 0.01500000, -38925017538391883175727323894287507361414867196319443897315213136111843692880589418833241694551281115881936795354529792.00000000
0.10500000, 0.01500000, 43597172994997995151268035417634166838329497745697396092297756433763733514543796832374746652142733626410763222826090496.00000000
0.11500000, 0.01500000, -47975975074138638235566188403949605552848285004263349485511105310428682018321699945714345689175194918066961706930667520.00000000
0.12500000, 0.01500000, 51312331463874312143295103011678283645612721535065567269057346928800263987373983991364128601163071254428578418371067904.00000000
0.13500000, 0.01500000, -53549959218490683187199401156292688847985961354834558574463674481703660802988925888449808981357841120343742616396890112.00000000
0.14500000, 0.01500000, 54943125566506230100516385754042205396135537531705902279212874562937094475990773175059149724988244443967618707212992512.00000000
0.15500000, 0.01500000, -55568882131060549332607564377432913981208621758369351146424623911514371478696674427968618779168540338978198271899467776.00000000
0.16500000, 0.01500000, 55412710781904765325192878779867416105143412956029948421986480273445342235876266340283322651770750755279924546689302528.00000000
0.17500000, 0.01500000, -54918748530713208992154000111915027155468025513676394120890111528411947354782593854211342504249413265102217978469941248.00000000
0.18500000, 0.01500000, 55039847787825229600045692753979326881357375422091875307327103435224701293944613594233757511848347880522744224158842880.00000000
0.19500000, 0.01500000, -56201293554958244313011963080486830943044913678680606791752721123733761435897206380431726844368409640204289745912594432.00000000
0.20500000, 0.01500000, 57503480153944555493525683505587443869026415830863685812518750089145537992133709354290534320835889086969140025940246528.00000000
0.21500000, 0.01500000, -57329548027073865603316017488884174441014245450529560491505515291375963093188092712718016227170257940083217303062183936.00000000
0.22500000, 0.01500000, 54564365500815767353151593853652045505355583139763082553179298235770398382988077732779976378990981330058020708637736960.00000000
0.23500000, 0.01500000, -49276677079157060809455624043713560970152593849900632397389193335630167340537737342307753390680442662866532713445195776.00000000
0.24500000, 0.01500000, 42517184223241948833991280692611928077327855379522914025778592868670161256379423307539645576983751848336434052378656768.00000000
0.25500000, 0.01500000, -35525534594781771721269821237375573452080396971545492339113920132428621628827694674721871892731551717355807345005821952.00000000
0.26500000, 0.01500000, 28925068334299396702920683341923780443530719712228239423604669211219982864462372734946532543375531508025826613856829440.00000000
0.27500000, 0.01500000, -22455398211551338862657679244485600629321995005887138362967982185073155361397069580279266011506655340826368502713548800.00000000
0.28500000, 0.01500000, 15692869876289779853534444650806997644559823635465654949196799252679414485995804752557129829481335738905904836121722880.00000000
0.29500000, 0.01500000, -8517428349765399244063718033097897774143829601236549233767490753025857682743388166320983663737979044311137840915283968.00000000
0.30500000, 0.01500000, 1226769320675933398659278853840538691492377387270248497872561690078018465909395219151588676807266895744828161755447296.00000000
0.31500000, 0.01500000, 5893508009544708661984871768351355109073978440855001399898722871450659803830198877896133237940079607122675283412385792.00000000
0.32500000, 0.01500000, -12599123554550985718358340929528006074883437293842762629969868816007881500220680709002821138781267577853208138415603712.00000000
0.33500000, 0.01500000, 18549898661748587430524271147088033954113724972691849089514363376582334652339190277236160944467885762323519412000260096.00000000
0.34500000, 0.01500000, -23288535503588093260858226924725343204589124260134093587421390689286908773802119239090733341935866558020632716802785280.00000000
0.35500000, 0.01500000, 26445836556333237832174403098811232911534986065779465291196145858346329241272081223734338008206332003683037260564922368.00000000
0.36500000, 0.01500000, -27843941979541801413369685229222207806779473390506900611279313418237396303951003244562136727234639115101457517505413120.00000000
0.37500000, 0.01500000, 27359015453949197659429948137526000711713313970613905484524276905499398669140833726797682073445731506012460099229974528.00000000
0.38500000, 0.01500000, -24620656306367775879497096743423842684043237218273339920743384817930345886672833431504059503704855659032712026664206336.00000000
0.39500000, 0.01500000, 18706308233732637752256843854632631708607316627583089002872513813349522495304957747878899356029100812220033328421535744.00000000
0.40500000, 0.01500000, -8165936994987954088431904940808488444008707366882731819359777273461257308959420378754502287309161571266561543319322624.00000000
0.41500000, 0.01500000, -8680318410532756117726523327336880752809211767081759981848473377364605447845187097976596737029032742238673449439461376.00000000
0.42500000, 0.01500000, 33619979197855583841545897007417741926857861751411328798202386518836847891516086563674705129588997324416441021901045760.00000000
0.43500000, 0.01500000, -68704201177848453198179867551238638739082327072722553059156525842976601366097752116140092425139640423987110131508707328.00000000
0.44500000, 0.01500000, 116635991089951141490207176867686483594783560168503993282378736536188646787376233803478142422649294873065331870257905664.00000000
0.45500000, 0.01500000, -181185041815115334464675927832122919218798279243862280375986871781102984421426823591672823840363799097801749359614754816.00000000
0.46500000, 0.01500000, 266987729387154683734746887523986900058067466579761437764857364674424903426034136930407789471932920659456793505089716224.00000000
0.47500000, 0.01500000, -378848400684895332597936883233249135658774772804170830021315986941129879135297459162006446115214243306161703488426344448.00000000
0.48500000, 0.01500000, 521919898817953013589367552449328015998435781930073338822011626614585940693865879510599121883465289206224443149964541952.00000000
0.49500000, 0.01500000, -703270900534303992246578737515472928454162414419043558549200249152622207628680056544473536102412672307023206852155408384.00000000
0.50500000, 0.01500000, 932031527856742601432327098513618282630671107583386382299809174467996098697712290770196958697222567517294449927296909312.00000000
0.51500000, 0.01500000, -1215720392341263742980787072467614434502963984863019723283921508074666043260654085297938190166818076741019769098842669056.00000000
0.52500000, 0.01500000, 1556389335996931406656813261087586194880498177802983772206486047683939930158275412306899456509542240804557304585827385344.00000000
0.53500000, 0.01500000, -1951057470681156566740730474438676293238790829796499877218814794495769641693948672432492293088729209198353248412743237632.00000000
0.54500000, 0.01500000, 2393935555178507822310924153632758592348895528371007334176729500341781587527204040310932030910027853882417581246178656256.00000000
0.55500000, 0.01500000, -2876851465370405015583516689685343512092978866767251834194732915836160386448792626274130726901786162009178172551656898560.00000000
0.56500000, 0.01500000, 3390607441245402709872720361361799811005751878745938811550729735151469537265714945932436864200352926943178604447623282688.00000000
0.57500000, 0.01500000, -3929537806034138416707577202006359758226557485926908846737843427766579698902855122441375616620070725586765255726895988736.00000000
0.58500000, 0.01500000, 4492967898386575306942159496364393077492361519022392296439487898695427859428306133210498659354790427636278246825212772352.00000000
0.59500000, 0.01500000, -5075691150492877115318775353480526177029092315365404176262627315073869415886188455487599819793620071191520522170695417856.00000000
0.60500000, 0.01500000, 5648862723157003581469477635361052298231325769753770621087323865838963256708937081272929649622986016356561904237415497728.00000000
0.61500000, 0.01500000, -6170340486102179960426333292041246403475292842996696616453918673189646897719130878777395610430771979779541820068075667456.00000000
0.62500000, 0.01500000, 6630522222770781675618694554822002824533077247179684462109218482009775015799012252587605096215596070202096325565314236416.00000000
0.63500000, 0.01500000, -7036137041726294634092682056549866917964935070260403444907417395965799001055322000726598411190675330169266836908124667904.00000000
0.64500000, 0.01500000, 7354082354555592028148990015638062429784682955846601786056381347267363687986729209309983069828482897283447743486441291776.00000000
0.65500000, 0.01500000, -7527912330070101347694993469466161806379582545172656536648451481890218077571030663766656023247169124967340152459110645760.00000000
0.66500000, 0.01500000, 7511944066737387307604816135392499387683062917408143246990947450396617427727390865939009057672982729575425440533406810112.00000000
0.67500000, 0.01500000, -7276086672952490614580923250838477189990843982729001508127573380209581087039087962119985461474971435096786134945929101312.00000000
0.68500000, 0.01500000, 6826278876820275646457746266510672933394483076174350098272633545207570515373689657772445991267744043188273774835017973760.00000000
0.69500000, 0.01500000, -6227693409599808221261350489787482278740782598011174642653157436956170480379659919539958164612245414423259260949213741056.00000000
0.70500000, 0.01500000, 5568735640882275228883566712490401430346070928642919469931350267330323181281478349723526856530616344930890612188223897600.00000000
0.71500000, 0.01500000, -4890851612378307077033955729338293627716691697123909309250917209757230147367424814598110744037356300749084200355388981248.00000000
0.72500000, 0.01500000, 4198541884182594706217660916533769797233326308333830868051218691769118631608215189690680758994030653570888240628473266176.00000000
0.73500000, 0.01500000, -3517416988665820823214016106699326081766606940814923706147462930738762766193904195824873215837222518908691156719728852992.00000000
0.74500000, 0.01500000, 2539700811429582665396440498557939694038359410906213541018956069295760417644520024024961638616658332174111978782218780672.00000000
0.75500000, 0.01500000, -2326916495855755939896193587478887284491429176611101125449130781595141331276339342409524207995198378405822362849090994176.00000000
0.76500000, 0.01500000, 1815233861603162279712742056565933015742707525173424247543755334593205098756581095992379813828253492208083463577192628224.00000000
0.77500000, 0.01500000, -1318126930042526046609818283531073686424008652850269467683778674108802326355434595373138163152649522091679279082037575680.00000000
0.78500000, 0.01500000, 874922309254592359641321421963481377677131000937366985654008891173435383551892352111401817370415087380193538945759313920.00000000
0.79500000, 0.01500000, -554066549734712004331527764074066020396228472147628104724041966431926976867603515133182025592980312757404870184349466624.00000000
0.80500000, 0.01500000, 308368664463584110004094411824510625813732196230404993566231234487254850567580923412378130070719724785048594544095920128.00000000
0.81500000, 0.01500000, -86044950749711712976689482069522417686984984773030278109477455202259519489489280638590286096162005130792431298434564096.00000000
0.82500000, 0.01500000, -33731579781915361931538190791787287524159177925802856557400360626909626885679383964721414910998169093935838861102940160.00000000
0.83500000, 0.01500000, 132357946470566854935587920372284327957110515000628830971776509998674314419437116446543116507592249737959782351980462080.00000000
0.84500000, 0.01500000, -178987792444419165207491972397098396935540214291034917233663180514381243857469289275713010194833168452408612473293242368.00000000
0.85500000, 0.01500000, 209240502689244297100537267714149979499822217994027751825768289410211359611022582357597806128485829916841575672937709568.00000000
0.86500000, 0.01500000, -162851832280175432748326542603724484130036961779045833657720794015545663008876664066055530948700648654231790936723030016.00000000
0.87500000, 0.01500000, 164516885032417912021636752473306966243199907179563147237222180454658319422134341133578719971949365609450028223019614208.00000000
0.88500000, 0.01500000, -241706549756939583637035483008731146810098182389952751250626031522374242317643687023404303618316752809181314627873538048.00000000
0.89500000, 0.01500000, 206363356767219674305701654832936425732236497703854405905065541466694346669831417726429248379759878345559598633700032512.00000000
0.90500000, 0.01500000, -185314279992964403953477418421372697979064870812380007938019507392451388240364507008128036050605027332300034426475118592.00000000
0.91500000, 0.01500000, 180992568365005874525503823969761691293943602236032055607713743263013588729402098411716443437905092517129408154911637504.00000000
0.92500000, 0.01500000, -159939552163154049699875740341922912749028960511225811629063636988754007886154685038320957685317312301779499122702680064.00000000