TITLE = "Linear advection equation"
VARIABLES = "x", "y", "sol"
ZONE STRANDID=1, SOLUTIONTIME=2.2, I=100, J=100, DATAPACKING=POINT
0.00500000, 0.00500000, -454152749549496335408267878449151075191421426062850818073853346861605822597970718939158088924528640.00000000
0.01500000, 0.00500000, 305893019179489401369991322270863505573122855630490617433986948074899410246632107762253772191956992.00000000
0.02500000, 0.00500000, -201223291237578850125170824225944155315557404858574466974658721245823757853137877640933976030838784.00000000
0.03500000, 0.00500000, 128826019148665060375432810973777155231695414894279685501995685437996475688478456987757411943055360.00000000
0.04500000, 0.00500000, -80762740403678666980510246013453298108740575392229505823925001197434426245131869988031869908680704.00000000
0.05500000, 0.00500000, 50530305134099460451875342563701083521563281152945720985885295097149946776143780997725043342442496.00000000
0.06500000, 0.00500000, -32240827255778327643314730683148894961726839792615439559988550136133764143676585960018864144121856.00000000
0.07500000, 0.00500000, 20987724342858243570806120673497204642844277692008232993985494366792889921844466792793871778578432.00000000
0.08500000, 0.00500000, -14183522313489661318501617205699541335125126898230153278634424445708198490988747873324986666057728.00000000
0.09500000, 0.00500000, 10034642674572507010976709642298194114319276076535785577281622593949761411757540972431685372084224.00000000
0.10500000, 0.00500000, -7345804478700812368737714620083121787277420803765379344955203976350840327804259425992418812493824.00000000
0.11500000, 0.00500000, 5602160538745874683610079532005856464089466424313015139251211101054777752895889220008333071613952.00000000
0.12500000, 0.00500000, -4638451009400043221834067972859289478964592700842243299076124978390497817625861866705720564514816.00000000
0.13500000, 0.00500000, 4367223374757765500837018284126391788066010907488321082893764373344061773489254725644857529860096.00000000
0.14500000, 0.00500000, -4833047191339790837204120944976791665354534241074271316574894048760666775018636797209420580782080.00000000
0.15500000, 0.00500000, 6453241267420485771420973119164878819244046346595626023990655384939255496063131888479216175415296.00000000
0.16500000, 0.00500000, -10159212357848529311230262251795493211691234302873867870122713874490957190038535582019946918445056.00000000
0.17500000, 0.00500000, 17573870223167417031288429905931606226443695993566444722350085303008587324576830629506083681468416.00000000
0.18500000, 0.00500000, -31442238015407276622025859511411002228222971149764676421992832259946656400019264806710510031470592.00000000
0.19500000, 0.00500000, 57121728440006229826076233922837955278427885471202021433340887118036379632905810567071208247918592.00000000
0.20500000, 0.00500000, -105796778449637686290415519211706188818549719785672914662602372270413536920446057090179814614106112.00000000
0.21500000, 0.00500000, 198965169654007995091417628222561445856308261566983802419207222768205283165868654088741244360458240.00000000
0.22500000, 0.00500000, -372550756687626607803190935294574342655992819820550223198527969162854592650781187493532371657949184.00000000
0.23500000, 0.00500000, 681083883500554129855575572517275798647851968094772729730011748963945825590101662819503224964251648.00000000
0.24500000, 0.00500000, -1201276281197483745475228715905535278438725615328404877039489553391199576609980407509635892521205760.00000000
0.25500000, 0.00500000, 2034125981356718283737355724687326101161894225386134950752650666112606014254750000180312965637996544.00000000
0.26500000, 0.00500000, -3316047569756581181481469729526687378103524283972159832358867951088022945096278081274109167921004544.00000000
0.27500000, 0.00500000, 5242503666359568664301978108520405666131003458974949083810928591414899019726832049760211560199880704.00000000
0.28500000, 0.00500000, -8087267374844770289339439649412449526238590439556255998500490684168489443250100236441023862525657088.00000000
0.29500000, 0.00500000, 12176349122537414023537723751441636587979396665775728576090666371774990805738926825183692586362077184.00000000
0.30500000, 0.00500000, -17768830893238100555895263167648810711008779354919150390066533676008460647769282461924894657243774976.00000000
0.31500000, 0.00500000, 24948119296395834594732950900193412784470912974539921321600138366803787082969817611421535589070012416.00000000
0.32500000, 0.00500000, -33815560099762878046791923430420789285513275873557117985276133120428284697210749533705898213523849216.00000000
0.33500000, 0.00500000, 44994499881806978050715047303810816146474598667712119900738881881213964666823402044227651719957315584.00000000
0.34500000, 0.00500000, -59777480128878529122990695825426889864383870942156179502598568143736870553754417910263040395073028096.00000000
0.35500000, 0.00500000, 79124031464518025260089852119610039224076964581666366935807347435913981479610744545720223309221593088.00000000
0.36500000, 0.00500000, -102479029608026846815452994997217678079764305182734512697467786535688861546825651474749429681114578944.00000000
0.37500000, 0.00500000, 128710754287705863084007261825522569854345757340581589658954772645267786698266480778987247176354103296.00000000
0.38500000, 0.00500000, -157858425513496539122993355028126075476777527891498952218701240095179895173093021343098999680966590464.00000000
0.39500000, 0.00500000, 189940042798345809290143317503341894355771571682273248769702917572423133717564094717822669540787486720.00000000
0.40500000, 0.00500000, -223303745000154812218692613968665753347815099022097577982856186020944011616140192091014567470282309632.00000000
0.41500000, 0.00500000, 255864432199109356405806219410428105916015606661145104178053657792360071373539254181807140009806921728.00000000
0.42500000, 0.00500000, -285910369169783397877932483444158197542018648344839691522955080665842564166214249943800208176707534848.00000000
0.43500000, 0.00500000, 311752227403794048603269287825149778203523090306683120946987567322221890562797672620854325302880370688.00000000
0.44500000, 0.00500000, -333317228195548313717090747637080023461815966740831172044869956197804083517313809457824785215164252160.00000000
0.45500000, 0.00500000, 352740925527678623168085138381231864809464736388473012166690954317516771514807524665094463954813452288.00000000
0.46500000, 0.00500000, -371128185621273615010507672468121102256904469890437676192070989394551952684105547773074116730043760640.00000000
0.47500000, 0.00500000, 385442214585769751803419859010320051834749865146507838467603323617443574201001628503949929954324512768.00000000
0.48500000, 0.00500000, -390378216262805413710837315889358299059296440009868302983607038933520240092666769142318894257276977152.00000000
0.49500000, 0.00500000, 383491873091816444663336588360172436856344169890255636064435521694197302806763889464906201350476398592.00000000
0.50500000, 0.00500000, -366580757908404316147529824506577244154593797676509361837575719703480029979671347060500592468038778880.00000000
0.51500000, 0.00500000, 342310271338926118819064510930903626389430215778038868105318041170794382247067946561661301788344582144.00000000
0.52500000, 0.00500000, -311713819456900206874135533994513266677953656966719102802162156123260463245704434713770635505812111360.00000000
0.53500000, 0.00500000, 274850792042139121204668760775750030810674811088188768876126756968849515873825508527428735991615062016.00000000
0.54500000, 0.00500000, -233801986140895199874516358696936432268936790029998283338799804968715044944308158650119144778131046400.00000000
0.55500000, 0.00500000, 191530756837435025942949303439717254619672250656630221587504168988417753198758973201920597017046810624.00000000
0.56500000, 0.00500000, -151381505905542287186013965711087103091853440690015636403448042695738417483403002601342072205862764544.00000000
0.57500000, 0.00500000, 116507678479481822711545236908428288549445735477298075629442020005257985618784948120080848867043573760.00000000
0.58500000, 0.00500000, -86600719874406479178707655912936743165650718143868705029806146554895517256626892229156907123719798784.00000000
0.59500000, 0.00500000, 59830718876307497950528711893676745868881689459196374267353003616851716266829472512256498102616195072.00000000
0.60500000, 0.00500000, -35310637001705859062958091535097220797234716793674075781667469268920328081883654893553709213716316160.00000000
0.61500000, 0.00500000, 13217478406814659122162095720086101375508679275724447020527128345595937593950365901113945114420445184.00000000
0.62500000, 0.00500000, 6258774736759039769740254854855812828382657834353077772347841882041253505600633116707015124137803776.00000000
0.63500000, 0.00500000, -23240601932583392069087729426044171909607926801022973828520193164696966532697926803699998939727003648.00000000
0.64500000, 0.00500000, 37917180501689548563672197271110110293674035073779481462651615000991243344638256561393561184103301120.00000000
0.65500000, 0.00500000, -50341472330704668716147956188920360116778667827668332890928020875242743740652410459252975308489359360.00000000
0.66500000, 0.00500000, 60411092449488285221256176531250954254786812189761781014868809425533649043978069058791622176057327616.00000000
0.67500000, 0.00500000, -68046063881955305762721876766733737336141386004138705850140192889934298913580867315430586884173070336.00000000
0.68500000, 0.00500000, 73273923472530297294233005094769325752091120009679457950584322798613101967604019022916520915331186688.00000000
0.69500000, 0.00500000, -76166347596096030143122658019113853100148358094579994445731107623763677252668699318320787815093239808.00000000
0.70500000, 0.00500000, 76686245669628353798123177364332827258910610912676317399497709241030276915319150459672837192438251520.00000000
0.71500000, 0.00500000, -74855848914747739020595493246354770083094175356608797978635844439462595203066099362215586682198032384.00000000
0.72500000, 0.00500000, 70815548358078500656974751607486933763860739636788416134881664062787920454692225728030733981418782720.00000000
0.73500000, 0.00500000, -64853683826376400841353538653565569813221567895874225030317209378396412581417042682916659583128698880.00000000
0.74500000, 0.00500000, 57352114073692037347521969140088808930656061158576549597352747754300517849638461834467297694014504960.00000000
0.75500000, 0.00500000, -48816191463555173587713759479412217680174048838754539408677478287119184676547087629857212041720233984.00000000
0.76500000, 0.00500000, 39862574555238500384007729468202097861698418119282204702232752753201154446319916136739279192308318208.00000000
0.77500000, 0.00500000, -31132089803527562183792460130362212561105254818189960150546112343283828979248448775068319900766306304.00000000
0.78500000, 0.00500000, 23255821641309132900462564492184928353178034622161477740480340486601564924691793329423104174630895616.00000000
0.79500000, 0.00500000, -16658008521564829897292590835069674098372663986895576778004411172362475730383623602754203152352804864.00000000
0.80500000, 0.00500000, 11296160295543077277799987580543138123669097213687088026015924774114288794935346310273525343655559168.00000000
0.81500000, 0.00500000, -6902946457302360728890849422143427712653069768047671137163881335745315353850724277420043399380074496.00000000
0.82500000, 0.00500000, 3367107634094797740932511397263344695432902095725695621115125809238896565818056525395946594898018304.00000000
0.83500000, 0.00500000, -653424426114408784861116309116375543416565318893878835029147938068979431846489365706288287958695936.00000000
0.84500000, 0.00500000, -1344284595709813715888682440971263360253819421739273886597209767454178148564897230831711815016120320.00000000
0.85500000, 0.00500000, 2741901863948456087291970200870444781582962366164471904997209056698047136157946329204907806468079616.00000000
0.86500000, 0.00500000, -3629748813752243304836077776445769723243455912986107298304845466559881594333528702684506696928198656.00000000
0.87500000, 0.00500000, 4097425216689647414972802675150809180232573328480083420514234802187053189643156338483030273193672704.00000000
0.88500000, 0.00500000, -4238613970515771356233942855747583042251440921239667518280641646280738430111737117654832616497479680.00000000
0.89500000, 0.00500000, 4149296604456049573528881477071134745782145358542971999934046811426604747877074883939806836965769216.00000000
0.90500000, 0.00500000, -3924482511775469753905941052576117457146338821468182813540316000209769584588423905387004312164499456.00000000
0.91500000, 0.00500000, 3615561539765451499075743827843369413240092814905886106913263467774923519070370221359341254664519680.00000000
0.92500000, 0.00500000, -3223360385041510921931924660345739875175945701408644205190903222372383940913456695481068580302225408.00000000
0.93500000, 0.00500000, 2782190729514658040440435465580532254992870297136500173466395127747992580364504047835507072331415552.00000000
0.94500000, 0.00500000, -2356355498552842413913505005605809338544499353838399320749667020504082991890942454104251207021232128.00000000
0.95500000, 0.00500000, 1954169272131403495737355916810973778567222267795147647138684597031961888471197295299604126338383872.00000000
0.96500000, 0.00500000, -1561911290082667465359287318331181851635498663227431424718345199309503369279807135286158309191581696.00000000
0.97500000, 0.00500000, 1200369898569639329392238481013342347296891823802838360758934829967436538680221462688365989932826624.00000000
0.98500000, 0.00500000, -894686016102581542543177483841952108667444272106626244921498822784642275275459986254346870014869504.00000000
0.99500000, 0.00500000, 649925779960373249616213633270184882669208182116969523066546686257236844825459492606859493219762176.00000000
0.00500000, 0.01500000, 350285428084760843469924246548175037749691897069169511551490767190497217064488960259795840447545344.00000000
0.01500000, 0.01500000, -234183666221288247553909393187016384673771938464365830606360101005190532090766700393981644724240384.00000000
0.02500000, 0.01500000, 150049354682081136763499285954519873528896476899074294614672106285995942755233578507077308748136448.00000000
0.03500000, 0.01500000, -92836628922742506786478512108496018375388592365309663764506581332461733589919588838677561141624832.00000000
0.04500000, 0.01500000, 56173127429271339146895872729918064585610121201609096245848211664024789774303261742237840027156480.00000000
0.05500000, 0.01500000, -34251244381608740649615838064494390702782546570861689803579451878433576345960816283438555768815616.00000000
0.06500000, 0.01500000, 21278476765001517950240752263437659007472995906318420311350692466573060479440188851379678610456576.00000000
0.07500000, 0.01500000, -13658856129000851226402497938749354611759140373287815559511754464183900224287542375137487911649280.00000000
0.08500000, 0.01500000, 9271980567410863036903909392894538797415557509271264639862586196069814780375692236195348103561216.00000000
0.09500000, 0.01500000, -6755023360957247417364509424847456787042654328866516816884371669177021538158585771013474149728256.00000000
0.10500000, 0.01500000, 5386296738995209313195933656821984731078271773165191049175682217769087482320213728908929488912384.00000000
0.11500000, 0.01500000, -4805138221199703577203878791451623907853866015278929677563097062948150272794238199887545570951168.00000000
0.12500000, 0.01500000, 4850607549695081864352616015660724873342735161720996452826480042493726137563885583321839622422528.00000000
0.13500000, 0.01500000, -5468452270169000254986424748292564512093722447072971414209800941850197773965294231031983378530304.00000000
0.14500000, 0.01500000, 6786035031499474599079472419855325958253315962250962685492434920999120954378470356450371749019648.00000000
0.15500000, 0.01500000, -9230200495371380110351925688455654529009104103407702707284900744841094410883450710840759575117824.00000000
0.16500000, 0.01500000, 13703704617184056019970169684477566136924581054229667647207640121117433770051734993825946461536256.00000000
0.17500000, 0.01500000, -21808554179168815647824099568230556600197973861567977399438305908520144089347619292636308312162304.00000000
0.18500000, 0.01500000, 36202642055869260604656788155587908201843199028252406022468564266121533366906906390539951367258112.00000000
0.19500000, 0.01500000, -62266879620576287460412773904542119871461578162892390344906809721147225492259467768824294438600704.00000000
0.20500000, 0.01500000, 111719381255923466775931782180519644691605568838388003101676111768765975044882772264424582254952448.00000000
0.21500000, 0.01500000, -206583393049938141361387209195971520318600374547056848834686879469215459585001258123467411127533568.00000000
0.22500000, 0.01500000, 382248549987505249004250574487755308283140763651119399562763999655494187347192296761813928368930816.00000000
0.23500000, 0.01500000, -690166840495422470990357802950763454779479388307242555173213329108091696255272897062796884633976832.00000000
0.24500000, 0.01500000, 1196293683132354211279345009056972429308353111311507965214909594406834370005994120816526141851435008.00000000
0.25500000, 0.01500000, -1981119640273332689092338000717538445886484908548803195339427117810603036322288210656853023946440704.00000000
0.26500000, 0.01500000, 3167138273687265045995715760282519208112099014767385454996905355914961560519837393245463256470913024.00000000
0.27500000, 0.01500000, -4964644686422340231630472126937299011153301761264977980963421964496431483045833809593036138551967744.00000000
0.28500000, 0.01500000, 7665272323106227396376223376927835328239824842984088915121408894154261867923856593137152498067308544.00000000
0.29500000, 0.01500000, -11546968704727945245595549937189668102360159944896070440641661128566658798856274223259047786541219840.00000000
0.30500000, 0.01500000, 16774478628284270937810607214617635428803217012250734413490217049109288504101029960742854102372843520.00000000
0.31500000, 0.01500000, -23434163429500742559365928880669297292618693188416996821507700587123381727066767654459327419638611968.00000000
0.32500000, 0.01500000, 31746444609553629196829651046675943917935555664540416891129927844084323569896535368195759323184365568.00000000
0.33500000, 0.01500000, -42300122922053610701556068832398357069735866185389803439233359487484513445503305036875399226468597760.00000000
0.34500000, 0.01500000, 55948838389252049939046789271451339406765467429996216658837963679260806087542543498502445365943336960.00000000
0.35500000, 0.01500000, -73109294350138157543088466382121635591936386346753279772736683252434513600480144693742649129226469376.00000000
0.36500000, 0.01500000, 93322478170538952566499722433292271098037304739157760611558379471622611575872693207361470545394663424.00000000
0.37500000, 0.01500000, -115979105098191830042713766965487675332595086555795460650639852598021281864633452397177586057165668352.00000000
0.38500000, 0.01500000, 140800583665554505980618277949188284925044377239683152619897799646011189530630112751195486865722441728.00000000
0.39500000, 0.01500000, -167262951806902273710742516805781752338517425533825057913628614841404361882568604051599537970710839296.00000000
0.40500000, 0.01500000, 194666048874404388863055442621436282349085793375510579936469708797629699611872234981484276499932512256.00000000
0.41500000, 0.01500000, -222236819325126322910307773888279405003450725476643010655886331330886403907702318557362079530076864512.00000000
0.42500000, 0.01500000, 248331750717711797390449241174532706508254094089067517338820347555036642103447497071543090082217984000.00000000
0.43500000, 0.01500000, -271063751171116909633994581922079389709074717290760495250785186607445967292161925261625819806266556416.00000000
0.44500000, 0.01500000, 290312422209402757419259348856800217414996594481512789579934648201787008822176479653358402251251515392.00000000
0.45500000, 0.01500000, -307504739511561068121117386276680696750901396843844321309880558376455771442751888843583673561193119744.00000000
0.46500000, 0.01500000, 322772971572046533797533837712881635306962797404496411398403525794393242560780068564917987169479426048.00000000
0.47500000, 0.01500000, -333496567387358549154182259014158881146677429224958376708579759159195453771144590985537976811644780544.00000000
0.48500000, 0.01500000, 336223427622298368601498982827612187501147498724407249597887619018151114625845297110186419282193154048.00000000
0.49500000, 0.01500000, -329555369361616145876362338189684341683271282835805963753926273043114384659429396645685849252295606272.00000000
0.50500000, 0.01500000, 314593801482390518514114767893989789401228152619598076152502505638066950164148875819121433690637336576.00000000
0.51500000, 0.01500000, -293083033461903274866682232962247469812241714792543526488752416664180823162819136857120062365025435648.00000000
0.52500000, 0.01500000, 266190175581913292530077879207076668388958954842209972546588777058289343227848356644335839747344695296.00000000
0.53500000, 0.01500000, -234521301321318126405529420959068127924557013636765685521415468412683134027131554813660777008815144960.00000000
0.54500000, 0.01500000, 199205960265266504807667965970929455604009805653454702810360095864234362593450576795222339072473169920.00000000
0.55500000, 0.01500000, -162630517521169307082848689471711420170177224066900884510409206626722029718662367582702176407946002432.00000000
0.56500000, 0.01500000, 128446534456695032701174774725037192838915052110098847665845147459193740242865424994974102826222878720.00000000
0.57500000, 0.01500000, -98591584422364088951855680832928361606511530536577545279975030624822598689633359310611237390690287616.00000000
0.58500000, 0.01500000, 72296892112532541071054902241413079875339898456440449059811670050325706993448524332588843516995567616.00000000
0.59500000, 0.01500000, -48168816841946539078424756698245455081214960847669560917831963221562332827620867608268707306334584832.00000000
0.60500000, 0.01500000, 25847682710957158953388024438243481600548179276631773717315446640136682169990498448721663527965687808.00000000
0.61500000, 0.01500000, -5580495976291257478059392540528752240961119825525227495120169536340966568493019246736423984547495936.00000000
0.62500000, 0.01500000, -12512688962528768655191912324056493204920435546107893377590344062490391109254915756579822761179873280.00000000
0.63500000, 0.01500000, 28493575325457438562037117784891807535416246316741800702357688380814116099062812843054718286812938240.00000000
0.64500000, 0.01500000, -42407927337085320687979710994701875875361180220733244130715424346559822466288229610999015268809703424.00000000
0.65500000, 0.01500000, 54161626780173254786956752966917569623498985196293309629050614649318608723645409740004010475512659968.00000000
0.66500000, 0.01500000, -63596625540503344944897160420236912163511244128920454343715801873457678425408012091659365818017251328.00000000
0.67500000, 0.01500000, 70644395487566983295264256257590824354400522132700566504820259330522963913019507087357115351317872640.00000000
0.68500000, 0.01500000, -75296469804667161480422895163472156033949829346142121617952369940884737268246532607819925120794755072.00000000
0.69500000, 0.01500000, 77478106480008005529611824853499409599862253656913642754762275306861452604449232245472446305039024128.00000000
0.70500000, 0.01500000, -77089018159638712927928401908618017124281832371127852304565464713548768236045605337420509589322858496.00000000
0.71500000, 0.01500000, 74185133305988160031987631061987123283990099941364105899726275322862922818256943421580084166451527680.00000000
0.72500000, 0.01500000, -69045297658919849344130147950256788484949074282796330006977287272133063989630723819638743677219635200.00000000
0.73500000, 0.01500000, 62085716783216345895274619681801339344162837247660775384672045181140951257428803411980792955496562688.00000000
0.74500000, 0.01500000, -53827176391137518338734871286803629633513264557440201180648692108731216140224449842769161023729434624.00000000
0.75500000, 0.01500000, 44909028439688357997445848961644746050537477357654616941034751838635990521375238050588526070659547136.00000000
0.76500000, 0.01500000, -35991562096200281700235382148462904114294774836112081265808644689965168000961613550886598566540738560.00000000
0.77500000, 0.01500000, 27644539969506714316357840866380639107459591798534702287396347828178084442308716532709370947180691456.00000000
0.78500000, 0.01500000, -20298210568984251235201024199595862163278524336860731693068103688244391935121616292623780851644104704.00000000
0.79500000, 0.01500000, 14121160700369288949501420239725303113540277324856576914552548102282637353894575538260801863664271360.00000000
0.80500000, 0.01500000, -9045198533423383039697706469764105212113414472425178805746746902110577919691747878905343108251123712.00000000
0.81500000, 0.01500000, 4996709520878080155596065947524926416806011241922120436923095236626921544411502734467826258030886912.00000000
0.82500000, 0.01500000, -1904513403424056165953135336678986967613584373032209412584815682474803452129907456567625349928583168.00000000
0.83500000, 0.01500000, -392442558708366843647961534661142558043114579068846989319663920707768850602305376549403965846978560.00000000
0.84500000, 0.01500000, 2047521604727295005008510815231204601305310601071397310262820271676054257982719066708156426498342912.00000000
0.85500000, 0.01500000, -3138533763088983080499711690203281743852389021277872296227895907724916481402050547259529000036335616.00000000
0.86500000, 0.01500000, 3320642098250359850656781831122703261609996426183477720486686789160555520072848404949237066228563968.00000000
0.87500000, 0.01500000, -3565861098233137006281323805760098048769323336453153674206867907578491076061366093506148181649391616.00000000
0.88500000, 0.01500000, 3981794583665766636410014092180827574195798859280229417277587328633412621612507208683969467773878272.00000000
0.89500000, 0.01500000, -2614445329923458770011730257892997707493321883292932320636363644181807988116352024171296318619123712.00000000
0.90500000, 0.01500000, 3622494938039750042160320006037417936149774689353559672168977574452706829735807018098928646380060672.00000000
0.91500000, 0.01500000, -3322018258936239049861405358064890986035348155912614976709276040914863296067097345240771515486568448.00000000
0.92500000, 0.01500000, 2857631336357873508232538263690579842624782309921462758196684588747814109557960939700255086839070720.00000000
0.93500000, 0.01500000, -2379528084956765899859159823353644600571570682245839918654800192352979342562922443753491871396003840.00000000
0.94500000, 0.01500000, 2000478074654069627536315027222102018586153279492839749256891353439127798120937194810660529639522304.00000000
0.95500000, 0.01500000, -1640787872746789987787120054485048617798868752332290818241490766887907307197702107225143640332435456.00000000
0.96500000, 0.01500000, 1274452982662098226659722639858426258477238362283341723272421349045890186972297018175904107588485120.00000000
0.97500000, 0.01500000, -950754759512586441602579712310713031716496602448508327242166892461744186305761420434245680128589824.00000000
0.98500000, 0.01500000, 693982945729361933847303592470731833882151747010546763703994268911732410576292519512086248727511040.00000000
0.99500000, 0.01500000, -500638359336745080425124159638355626469773094596748982006491010066862025531723924696485009156997120.00000000
0.00500000, 0.02500000, -264139936000534829862275022708890803698633149578273919455080442007462435722303270956632287198838784.00000000
0.01500000, 0.02500000, 172138455228005495273639401386604681775869812145131631499764675364880010493717070855700471661723648.00000000
0.02500000, 0.02500000, -107828047739338981482062616486278228117539756631541691750235480324484039237916233216779908699652096.00000000
0.03500000, 0.02500000, 65284002570763693469097951273418084359234162508132542466336895316821797177746126951659779590717440.00000000
0.04500000, 0.02500000, -38901568201631370664725904885812744675757330649724449186396882398546739010087534140055377403707392.00000000
0.05500000, 0.02500000, 23271775089785918978924993190472105177101517115079651892263083071474797294986619050900555592368128.00000000
0.06500000, 0.02500000, -14297509954071397566930661884169603434882980331340582778738389036357235032366759769338688730824704.00000000
0.07500000, 0.02500000, 9292122554134966496879663094029894780868365156572861499759360882286686175958212899183856315269120.00000000
0.08500000, 0.02500000, -6600829132517816127008192340531542009366226624251804273342256779446470599821986800598513329635328.00000000
0.09500000, 0.02500000, 5323505740071990250616039191985348993801464798791381545057397264315518112283349201707912380022784.00000000
0.10500000, 0.02500000, -4967008916588554619703358086227152865305283038555606619385397021876603928945430917140302461403136.00000000
0.11500000, 0.02500000, 5277512429172550096395725417599739671527518702471921079081422695548825550814756926157149496672256.00000000
0.12500000, 0.02500000, -6145939705296891726412828135616783936890843043002726503237441838288127344850894157488293821808640.00000000
0.13500000, 0.02500000, 7564319584524195521394263429618387275473714378603874577981147466575235904479989721028541974315008.00000000
0.14500000, 0.02500000, -9688017952352512270037996650484927556009194317688621530053173121521766383844123637604371868418048.00000000
0.15500000, 0.02500000, 12948802317250159067552541973211976176952376247954090575315025428965341555734829377363172353114112.00000000
0.16500000, 0.02500000, -18254316858795630377154823770672291358903965194775142542831522298377016660899336349501940115177472.00000000
0.17500000, 0.02500000, 27147135686981580967039215084113224008731647132861884704425184959284696573723877754237397386657792.00000000
0.18500000, 0.02500000, -42159484980008691114132793939459310586786829763184216625342834870830679369857083023465444500570112.00000000
0.19500000, 0.02500000, 68825745312730748378845493924381977908547520743921139204285329032070898300798953958557457951227904.00000000
0.20500000, 0.02500000, -119197531122566405485603818047053166939882581480798826202033201191202287934807355713136095351799808.00000000
0.21500000, 0.02500000, 214519617574058120307749669348870531661955073622356354147758410971122813717724807164849677458735104.00000000