TITLE = "Linear advection equation"
VARIABLES = "x", "y", "sol"
ZONE STRANDID=1, SOLUTIONTIME=0.6, I=100, J=100, DATAPACKING=POINT
0.00500000, 0.00500000, 63633306826791545986875392.00000000
0.01500000, 0.00500000, -68881358952262067082493952.00000000
0.02500000, 0.00500000, 66849476594492459253235712.00000000
0.03500000, 0.00500000, -52925088616643299595255808.00000000
0.04500000, 0.00500000, 37348076151815649567440896.00000000
0.05500000, 0.00500000, -16947555795977067678400512.00000000
0.06500000, 0.00500000, -5524873590013947201716224.00000000
0.07500000, 0.00500000, 25939711477764163895296000.00000000
0.08500000, 0.00500000, -42366768487277522191384576.00000000
0.09500000, 0.00500000, 53697854222863602993332224.00000000
0.10500000, 0.00500000, -59731474287988385932902400.00000000
0.11500000, 0.00500000, 57499632171182350984544256.00000000
0.12500000, 0.00500000, -58791397588456372883685376.00000000
0.13500000, 0.00500000, 53547224928314405364432896.00000000
0.14500000, 0.00500000, -46450080270685947685765120.00000000
0.15500000, 0.00500000, 38966616350483381292630016.00000000
0.16500000, 0.00500000, -32264287202087276373868544.00000000
0.17500000, 0.00500000, 27181095787775176929705984.00000000
0.18500000, 0.00500000, -23993991990306234567753728.00000000
0.19500000, 0.00500000, 22425728551397292641353728.00000000
0.20500000, 0.00500000, -22727444761789512936325120.00000000
0.21500000, 0.00500000, 25149459598932380154331136.00000000
0.22500000, 0.00500000, -29940307678702726121783296.00000000
0.23500000, 0.00500000, 37510500461906287751331840.00000000
0.24500000, 0.00500000, -47306640765238449983717376.00000000
0.25500000, 0.00500000, 57527828963710708060520448.00000000
0.26500000, 0.00500000, -65354627115727693199441920.00000000
0.27500000, 0.00500000, 67809740580116364196315136.00000000
0.28500000, 0.00500000, -62927820815912152745377792.00000000
0.29500000, 0.00500000, 50765419723203057272487936.00000000
0.30500000, 0.00500000, -33760681364866083388915712.00000000
0.31500000, 0.00500000, 16195455188578570071965696.00000000
0.32500000, 0.00500000, -2895777053408099219537920.00000000
0.33500000, 0.00500000, -2233886404044141275119616.00000000
0.34500000, 0.00500000, -2634280404913684618412032.00000000
0.35500000, 0.00500000, 17062515010537258370465792.00000000
0.36500000, 0.00500000, -39376466233925302675832832.00000000
0.37500000, 0.00500000, 67442884237108164115300352.00000000
0.38500000, 0.00500000, -98616871755213280330645504.00000000
0.39500000, 0.00500000, 129261540345328551029899264.00000000
0.40500000, 0.00500000, -153846087499489609097674752.00000000
0.41500000, 0.00500000, 166131331253975363042148352.00000000
0.42500000, 0.00500000, -163175809657109119837929472.00000000
0.43500000, 0.00500000, 147964480214621218182004736.00000000
0.44500000, 0.00500000, -126663019710491948887310336.00000000
0.45500000, 0.00500000, 103605504915386601188622336.00000000
0.46500000, 0.00500000, -82110382184173785371901952.00000000
0.47500000, 0.00500000, 66988206572857268736360448.00000000
0.48500000, 0.00500000, -61938554034219424711442432.00000000
0.49500000, 0.00500000, 67341381330237566622892032.00000000
0.50500000, 0.00500000, -81094234414047016299528192.00000000
0.51500000, 0.00500000, 100027274196850915969859584.00000000
0.52500000, 0.00500000, -120788966599331064999575552.00000000
0.53500000, 0.00500000, 139533390606094154300653568.00000000
0.54500000, 0.00500000, -151384771225161010344099840.00000000
0.55500000, 0.00500000, 151536175436244468910522368.00000000
0.56500000, 0.00500000, -137597629626461277168599040.00000000
0.57500000, 0.00500000, 110798690491310962729025536.00000000
0.58500000, 0.00500000, -75267690653542588222537728.00000000
0.59500000, 0.00500000, 36603853809889524261584896.00000000
0.60500000, 0.00500000, -530086507258883583508480.00000000
0.61500000, 0.00500000, -28227602569185543086669824.00000000
0.62500000, 0.00500000, 46999683241375417067634688.00000000
0.63500000, 0.00500000, -55346065925581008732684288.00000000
0.64500000, 0.00500000, 54851403309142290489933824.00000000
0.65500000, 0.00500000, -48348416071789627471560704.00000000
0.66500000, 0.00500000, 38913286525927567789129728.00000000
0.67500000, 0.00500000, -28956032375419260668739584.00000000
0.68500000, 0.00500000, 19781580274987933810819072.00000000
0.69500000, 0.00500000, -11753751972624615220445184.00000000
0.70500000, 0.00500000, 4781868526573398249177088.00000000
0.71500000, 0.00500000, 1263582198015217232773120.00000000
0.72500000, 0.00500000, -6412580834590711066132480.00000000
0.73500000, 0.00500000, 10710854367773290173300736.00000000
0.74500000, 0.00500000, -14362422535448635541291008.00000000
0.75500000, 0.00500000, 17762372332178534140215296.00000000
0.76500000, 0.00500000, -21456958954455484671721472.00000000
0.77500000, 0.00500000, 25731813076151101523230720.00000000
0.78500000, 0.00500000, -29942035323931560306016256.00000000
0.79500000, 0.00500000, 32617622063013490736496640.00000000
0.80500000, 0.00500000, -32201025765141005226475520.00000000
0.81500000, 0.00500000, 27334010722924183790026752.00000000
0.82500000, 0.00500000, -17384626001785761711521792.00000000
0.83500000, 0.00500000, 1873447622587953331568640.00000000
0.84500000, 0.00500000, 7422930775947356758081536.00000000
0.85500000, 0.00500000, -39376723191405895053475840.00000000
0.86500000, 0.00500000, 66452982158414857860284416.00000000
0.87500000, 0.00500000, -104462540311395976911781888.00000000
0.88500000, 0.00500000, 142421018211255937105133568.00000000
0.89500000, 0.00500000, -174389860853412557035143168.00000000
0.90500000, 0.00500000, 198671771461878385655939072.00000000
0.91500000, 0.00500000, -209876317277960540207972352.00000000
0.92500000, 0.00500000, 205902328296149338925563904.00000000
0.93500000, 0.00500000, -187927380425030297666453504.00000000
0.94500000, 0.00500000, 160402338152360532185710592.00000000
0.95500000, 0.00500000, -129883957384434114130608128.00000000
0.96500000, 0.00500000, 69035854184175059995721728.00000000
0.97500000, 0.00500000, -83406428433322385283743744.00000000
0.98500000, 0.00500000, 73053253046096980200128512.00000000
0.99500000, 0.00500000, -70309223136393985559363584.00000000
0.00500000, 0.01500000, -111623869953980059128692736.00000000
0.01500000, 0.01500000, 112084422000327940426956800.00000000
0.02500000, 0.01500000, -101527608298143163390885888.00000000
0.03500000, 0.01500000, 77409885639663842714714112.00000000
0.04500000, 0.01500000, -44565108059476146062884864.00000000
0.05500000, 0.01500000, 8923667441188455944552448.00000000
0.06500000, 0.01500000, 24340538462690708404830208.00000000
0.07500000, 0.01500000, -51487331085906376719859712.00000000
0.08500000, 0.01500000, 70674287244142112455786496.00000000
0.09500000, 0.01500000, -81986571677637632954728448.00000000
0.10500000, 0.01500000, 86616815172642319275917312.00000000
0.11500000, 0.01500000, -85924777059432086481403904.00000000
0.12500000, 0.01500000, 80755379158890963493978112.00000000
0.13500000, 0.01500000, -71954662188669090849095680.00000000
0.14500000, 0.01500000, 61085012489192608345620480.00000000
0.15500000, 0.01500000, -49992313517567043407183872.00000000
0.16500000, 0.01500000, 40195858244798924881657856.00000000
0.17500000, 0.01500000, -32685045009570281300164608.00000000
0.18500000, 0.01500000, 27668127703657974289399808.00000000
0.19500000, 0.01500000, -24870786607560698057719808.00000000
0.20500000, 0.01500000, 24131901998164855798890496.00000000
0.21500000, 0.01500000, -25484763411172146295078912.00000000
0.22500000, 0.01500000, 29243919545719362974384128.00000000
0.23500000, 0.01500000, -35345912158492572361162752.00000000
0.24500000, 0.01500000, 42816466481737977034702848.00000000
0.25500000, 0.01500000, -49639363496393779282182144.00000000
0.26500000, 0.01500000, 53226555743048666271711232.00000000
0.27500000, 0.01500000, -51320886691920886305390592.00000000
0.28500000, 0.01500000, 43036631430119109267816448.00000000
0.29500000, 0.01500000, -29595949195273998717419520.00000000
0.30500000, 0.01500000, 14289999906581822067179520.00000000
0.31500000, 0.01500000, -1561128921872631628562432.00000000
0.32500000, 0.01500000, -4368847345685219931848704.00000000
0.33500000, 0.01500000, 762176487270158499315712.00000000
0.34500000, 0.01500000, 12873119139117699235315712.00000000
0.35500000, 0.01500000, -35096491611668422244433920.00000000
0.36500000, 0.01500000, 63447295317786424510513152.00000000
0.37500000, 0.01500000, -94832865651943113553346560.00000000
0.38500000, 0.01500000, 125790617691986374361612288.00000000
0.39500000, 0.01500000, -152312221565703652705828864.00000000
0.40500000, 0.01500000, 169287781565533421171638272.00000000
0.41500000, 0.01500000, -172397252033717919115378688.00000000
0.42500000, 0.01500000, 161483010447367118614691840.00000000
0.43500000, 0.01500000, -140965544042973158082347008.00000000
0.44500000, 0.01500000, 116452038297910043278835712.00000000
0.45500000, 0.01500000, -92602654770864883490619392.00000000
0.46500000, 0.01500000, 74278880166918794231414784.00000000
0.47500000, 0.01500000, -65665794148673985099857920.00000000
0.48500000, 0.01500000, 68161688730818451091750912.00000000
0.49500000, 0.01500000, -80335962282575726746009600.00000000
0.50500000, 0.01500000, 98998170205903916114116608.00000000
0.51500000, 0.01500000, -120473819068363147684347904.00000000
0.52500000, 0.01500000, 140988725883893530828472320.00000000
0.53500000, 0.01500000, -155984915504369831526793216.00000000
0.54500000, 0.01500000, 160290055070911474369036288.00000000
0.55500000, 0.01500000, -150281799114069773805158400.00000000
0.56500000, 0.01500000, 125851297031869379463086080.00000000
0.57500000, 0.01500000, -90223452049168188269658112.00000000
0.58500000, 0.01500000, 48680279998206779777351680.00000000
0.59500000, 0.01500000, -7449022687918834417926144.00000000
0.60500000, 0.01500000, -27480318908988496298377216.00000000
0.61500000, 0.01500000, 51779264420808628648280064.00000000
0.62500000, 0.01500000, -63851649206889686887301120.00000000
0.63500000, 0.01500000, 64961473525521764816257024.00000000
0.64500000, 0.01500000, -58376587559460231167606784.00000000
0.65500000, 0.01500000, 47973924062135026085527552.00000000
0.66500000, 0.01500000, -36922414465508638204100608.00000000
0.67500000, 0.01500000, 26960374642779626894524416.00000000
0.68500000, 0.01500000, -18470628800210601148153856.00000000
0.69500000, 0.01500000, 11104797565263375306326016.00000000
0.70500000, 0.01500000, -4449149442163122747998208.00000000
0.71500000, 0.01500000, -1650939467066403329146880.00000000
0.72500000, 0.01500000, 7176436398666479201943552.00000000
0.73500000, 0.01500000, -12220501895478216587476992.00000000
0.74500000, 0.01500000, 16969788756158773840576512.00000000
0.75500000, 0.01500000, -21767624353673448995684352.00000000
0.76500000, 0.01500000, 27418095312844225544978432.00000000
0.77500000, 0.01500000, -33824895397225996574785536.00000000
0.78500000, 0.01500000, 38856820288792645465014272.00000000
0.79500000, 0.01500000, -40301404584160417149878272.00000000
0.80500000, 0.01500000, 25136419987550072568020992.00000000
0.81500000, 0.01500000, -26883800468555637515616256.00000000
0.82500000, 0.01500000, 10930427199286943185633280.00000000
0.83500000, 0.01500000, 12715962800972748772343808.00000000
0.84500000, 0.01500000, -44351675641186569703915520.00000000
0.85500000, 0.01500000, 75221701874477208352849920.00000000
0.86500000, 0.01500000, -108218639730086654439849984.00000000
0.87500000, 0.01500000, 146423924633662497495187456.00000000
0.88500000, 0.01500000, -197295273831643769135431680.00000000
0.89500000, 0.01500000, 249581413366632045336330240.00000000
0.90500000, 0.01500000, -278074498065462608122609664.00000000
0.91500000, 0.01500000, 283100248086459520882049024.00000000
0.92500000, 0.01500000, -266680928204555757029425152.00000000
0.93500000, 0.01500000, 233207024486472192754712576.00000000
0.94500000, 0.01500000, -191514938919636716197249024.00000000
0.95500000, 0.01500000, 151620540261875588276420608.00000000
0.96500000, 0.01500000, -121462089917783495273349120.00000000
0.97500000, 0.01500000, 104848198609212324702060544.00000000
0.98500000, 0.01500000, -101102020637357735099236352.00000000
0.99500000, 0.01500000, 105874824279102660632641536.00000000
0.00500000, 0.02500000, 153268461003887053992099840.00000000
0.01500000, 0.02500000, -149120946728688379305656320.00000000
0.02500000, 0.02500000, 125669790402536580138926080.00000000
0.03500000, 0.02500000, -85572259893739700657061888.00000000
0.04500000, 0.02500000, 37103080706477383164624896.00000000
0.05500000, 0.02500000, 11095064856167113534996480.00000000
0.06500000, 0.02500000, -52373782069748493344309248.00000000
0.07500000, 0.02500000, 82824486629745826295971840.00000000
0.08500000, 0.02500000, -101891286824958440264171520.00000000
0.09500000, 0.02500000, 111533443958708976241082368.00000000
0.10500000, 0.02500000, -114087673408655850018439168.00000000
0.11500000, 0.02500000, 110772575546125280144785408.00000000
0.12500000, 0.02500000, -102064075597057148378415104.00000000
0.13500000, 0.02500000, 89072226828120317900095488.00000000
0.14500000, 0.02500000, -73892969916194309449711616.00000000
0.15500000, 0.02500000, 58899455780923100855533568.00000000
0.16500000, 0.02500000, -46045399735342360250286080.00000000
0.17500000, 0.02500000, 36346847348335353832407040.00000000
0.18500000, 0.02500000, -29768104471159866084294656.00000000
0.19500000, 0.02500000, 25710079386168494722646016.00000000
0.20500000, 0.02500000, -23658214109760536629477376.00000000
0.21500000, 0.02500000, 23476672767849104335175680.00000000
0.22500000, 0.02500000, -25194718785568867656663040.00000000
0.23500000, 0.02500000, 28472861848483480712773632.00000000
0.24500000, 0.02500000, -32210778763928775658831872.00000000
0.25500000, 0.02500000, 34627448281224753746804736.00000000
0.26500000, 0.02500000, -33787701182860695728816128.00000000
0.27500000, 0.02500000, 28399648755149828828168192.00000000
0.28500000, 0.02500000, -18622856443482998791208960.00000000
0.29500000, 0.02500000, 6449684680136630776889344.00000000
0.30500000, 0.02500000, 4667089124611193428770816.00000000
0.31500000, 0.02500000, -10789900478189908097236992.00000000
0.32500000, 0.02500000, 8664226214332202915725312.00000000
0.33500000, 0.02500000, 3261650895328096007749632.00000000
0.34500000, 0.02500000, -24370675026191001690570752.00000000
0.35500000, 0.02500000, 52276336357082307871375360.00000000
0.36500000, 0.02500000, -83430386678719106672230400.00000000
0.37500000, 0.02500000, 113830550014001243402272768.00000000
0.38500000, 0.02500000, -140028491999769694832689152.00000000
0.39500000, 0.02500000, 158953234456055870501421056.00000000
0.40500000, 0.02500000, -167187809674411700742258688.00000000
0.41500000, 0.02500000, 162589942716461967130755072.00000000
0.42500000, 0.02500000, -146522458012974034318262272.00000000
0.43500000, 0.02500000, 123484923110261921796849664.00000000
0.44500000, 0.02500000, -98989383807598316618776576.00000000
0.45500000, 0.02500000, 78490369472683727631941632.00000000
0.46500000, 0.02500000, -66578332635400394210541568.00000000
0.47500000, 0.02500000, 65518027431136887411048448.00000000
0.48500000, 0.02500000, -74839455207161607143555072.00000000
0.49500000, 0.02500000, 91883743058204632557813760.00000000
0.50500000, 0.02500000, -112830540970928539015577600.00000000
0.51500000, 0.02500000, 133643202168573373704044544.00000000
0.52500000, 0.02500000, -150085328091764769194770432.00000000
0.53500000, 0.02500000, 157402010568465207393255424.00000000
0.54500000, 0.02500000, -151557301263729292130385920.00000000
0.55500000, 0.02500000, 131294592445345647910977536.00000000
0.56500000, 0.02500000, -98574742101615559093256192.00000000
0.57500000, 0.02500000, 57641579820428119477583872.00000000
0.58500000, 0.02500000, -14289474431468175158673408.00000000
0.59500000, 0.02500000, -24906785782965368621367296.00000000
0.60500000, 0.02500000, 54140672276485018811891712.00000000
0.61500000, 0.02500000, -70190212207730861228949504.00000000
0.62500000, 0.02500000, 73367002297675273927131136.00000000
0.63500000, 0.02500000, -66974469307095529551822848.00000000
0.64500000, 0.02500000, 55632053044612577565343744.00000000
0.65500000, 0.02500000, -43427209113871282365005824.00000000
0.66500000, 0.02500000, 32743302762715033920077824.00000000
0.67500000, 0.02500000, -24115896918907694769766400.00000000
0.68500000, 0.02500000, 16922722642157469907812352.00000000
0.69500000, 0.02500000, -10327884527086844736700416.00000000
0.70500000, 0.02500000, 3897726954946396262760448.00000000
0.71500000, 0.02500000, 2355553905461844500283392.00000000
0.72500000, 0.02500000, -8334841591660360708915200.00000000
0.73500000, 0.02500000, 14227231568391693072859136.00000000
0.74500000, 0.02500000, -20156126279588624377839616.00000000
0.75500000, 0.02500000, 26604532934261169922768896.00000000
0.76500000, 0.02500000, -34440050764244703766380544.00000000
0.77500000, 0.02500000, 41947279240041999496118272.00000000
0.78500000, 0.02500000, -45715448930483005076537344.00000000
0.79500000, 0.02500000, 44290192574241407808569344.00000000
0.80500000, 0.02500000, -36358858052653430062710784.00000000
0.81500000, 0.02500000, 8875111366508390496862208.00000000
0.82500000, 0.02500000, 5303362506717301277982720.00000000
0.83500000, 0.02500000, -41139966664427213147865088.00000000
0.84500000, 0.02500000, 87702549731644207815196672.00000000
0.85500000, 0.02500000, -129869056410917785758072832.00000000
0.86500000, 0.02500000, 155521578662122593001144320.00000000
0.87500000, 0.02500000, -196017063456159812515004416.00000000
0.88500000, 0.02500000, 268594070548180167007666176.00000000
0.89500000, 0.02500000, -318996490088595474966642688.00000000
0.90500000, 0.02500000, 339621074535485494599352320.00000000
0.91500000, 0.02500000, -332084576760699789108051968.00000000
0.92500000, 0.02500000, 298459857466159605783461888.00000000
0.93500000, 0.02500000, -250485224509743071934545920.00000000
0.94500000, 0.02500000, 201101631668103234713550848.00000000
0.95500000, 0.02500000, -159779801838237006738489344.00000000
0.96500000, 0.02500000, 133406993815971733841117184.00000000
0.97500000, 0.02500000, -124774703566151019401314304.00000000
0.98500000, 0.02500000, 130772269542236434244567040.00000000
0.99500000, 0.02500000, -143737798354528167197147136.00000000
0.00500000, 0.03500000, -186570990099774108938010624.00000000
0.01500000, 0.03500000, 172909428806572818474991616.00000000
0.02500000, 0.03500000, -134077352143237484034129920.00000000
0.03500000, 0.03500000, 77958932064669657854902272.00000000
0.04500000, 0.03500000, -16451178835533202559336448.00000000
0.05500000, 0.03500000, -40177311145949566743871488.00000000
0.06500000, 0.03500000, 84754924291328582147375104.00000000
0.07500000, 0.03500000, -114431654380443456556236800.00000000
0.08500000, 0.03500000, 131055942904893885667868672.00000000
0.09500000, 0.03500000, -138362706912677521474453504.00000000
0.10500000, 0.03500000, 138644996697890747393769472.00000000
0.11500000, 0.03500000, -132257328648218377323544576.00000000
0.12500000, 0.03500000, 119489792569954572836012032.00000000
0.13500000, 0.03500000, -102025406371461635300655104.00000000
0.14500000, 0.03500000, 82681999775068660055408640.00000000
0.15500000, 0.03500000, -64406854939537806721024000.00000000
0.16500000, 0.03500000, 49342577927047458618081280.00000000
0.17500000, 0.03500000, -38241347981137259440111616.00000000
0.18500000, 0.03500000, 30596087817299518487003136.00000000
0.19500000, 0.03500000, -25369047340270715267973120.00000000
0.20500000, 0.03500000, 21736921759004239127904256.00000000
0.21500000, 0.03500000, -19377235041899207888732160.00000000
0.22500000, 0.03500000, 18188768371566449157734400.00000000
0.23500000, 0.03500000, -17800117939414398681481216.00000000
0.24500000, 0.03500000, 17327575635884536680677376.00000000
0.25500000, 0.03500000, -15528600462132230070730752.00000000
0.26500000, 0.03500000, 11253651691380684993069056.00000000
0.27500000, 0.03500000, -4066690258730018731458560.00000000
0.28500000, 0.03500000, -5222229137559495215415296.00000000
0.29500000, 0.03500000, 14459852552395579981824000.00000000
0.30500000, 0.03500000, -20592832784406101859762176.00000000
0.31500000, 0.03500000, 20462310442109734089654272.00000000
0.32500000, 0.03500000, -11747209171270586142294016.00000000
0.33500000, 0.03500000, -6169621304411648071565312.00000000
0.34500000, 0.03500000, 31813724331071077605179392.00000000
0.35500000, 0.03500000, -61838427371019047706558464.00000000
0.36500000, 0.03500000, 91741289721149191408844800.00000000
0.37500000, 0.03500000, -117451316405627636080967680.00000000
0.38500000, 0.03500000, 136623812409916277557035008.00000000
0.39500000, 0.03500000, -147723982169811379157991424.00000000
0.40500000, 0.03500000, 148926343570330521293553664.00000000
0.41500000, 0.03500000, -139477206714977128695201792.00000000
0.42500000, 0.03500000, 121424867861542497700282368.00000000
0.43500000, 0.03500000, -99396762159171582979735552.00000000
0.44500000, 0.03500000, 78978227462123616252985344.00000000
0.45500000, 0.03500000, -65073604090873539534520320.00000000
0.46500000, 0.03500000, 60612346936617201204985856.00000000
0.47500000, 0.03500000, -66098762032167651570089984.00000000
0.48500000, 0.03500000, 79882634180184416844775424.00000000
0.49500000, 0.03500000, -98708544975131784209498112.00000000
0.50500000, 0.03500000, 118528216136433584903815168.00000000
0.51500000, 0.03500000, -135211713894466609414668288.00000000
0.52500000, 0.03500000, 144537414500967307886460928.00000000
0.53500000, 0.03500000, -142601508858581867684691968.00000000
0.54500000, 0.03500000, 127375627770551600194519040.00000000
0.55500000, 0.03500000, -99574996272185281639088128.00000000
0.56500000, 0.03500000, 62142083410402104936759296.00000000
0.57500000, 0.03500000, -19815637912065316900306944.00000000
0.58500000, 0.03500000, -21110892696773016370020352.00000000
0.59500000, 0.03500000, 53989634447231182362902528.00000000
0.60500000, 0.03500000, -73964999557517423457337344.00000000
0.61500000, 0.03500000, 79813655374930931141836800.00000000
0.62500000, 0.03500000, -74191402785454966907600896.00000000
0.63500000, 0.03500000, 62083503490474020687577088.00000000
0.64500000, 0.03500000, -48504218490184673223770112.00000000
0.65500000, 0.03500000, 36732890060046107452375040.00000000
0.66500000, 0.03500000, -27755492780483719385317376.00000000
0.67500000, 0.03500000, 20853081770777565395419136.00000000
0.68500000, 0.03500000, -14753736430859742267572224.00000000
0.69500000, 0.03500000, 8598473889243963557150720.00000000
0.70500000, 0.03500000, -2244368843028316788097024.00000000
0.71500000, 0.03500000, -4067243443690260580532224.00000000
0.72500000, 0.03500000, 10258121154541582945353728.00000000
0.73500000, 0.03500000, -16698740870598091780128768.00000000
0.74500000, 0.03500000, 23613752565891128740544512.00000000
0.75500000, 0.03500000, -31678106841216291428106240.00000000
0.76500000, 0.03500000, 40681806610200308593197056.00000000
0.77500000, 0.03500000, -47259506575050930789548032.00000000
0.78500000, 0.03500000, 32505390873186727110901760.00000000
0.79500000, 0.03500000, -43342085987790491645640704.00000000
0.80500000, 0.03500000, 28824303698553326750662656.00000000
0.81500000, 0.03500000, -7880923329575204742496256.00000000
0.82500000, 0.03500000, -34589212062443630946680832.00000000
0.83500000, 0.03500000, 83858439203217118966317056.00000000
0.84500000, 0.03500000, -136780824943508079186542592.00000000
0.85500000, 0.03500000, 180864305850394011286634496.00000000
0.86500000, 0.03500000, -201430659201222897527947264.00000000
0.87500000, 0.03500000, 248384654019775440168681472.00000000
0.88500000, 0.03500000, -315236148680307172645535744.00000000
0.89500000, 0.03500000, 359253261646867895836213248.00000000
0.90500000, 0.03500000, -366314560449885397154004992.00000000
0.91500000, 0.03500000, 339990303940785638471630848.00000000
0.92500000, 0.03500000, -291404850652588209543839744.00000000
0.93500000, 0.03500000, 239261360266078443769167872.00000000
0.94500000, 0.03500000, -192200074574236074941349888.00000000
0.95500000, 0.03500000, 155955701008986277014405120.00000000
0.96500000, 0.03500000, -138684835662375274076438528.00000000
0.97500000, 0.03500000, 141543527403641806128152576.00000000
0.98500000, 0.03500000, -158098239712815544937742336.00000000
0.99500000, 0.03500000, 177687811973561746009882624.00000000
0.00500000, 0.04500000, 204774527739448228631805952.00000000
0.01500000, 0.04500000, -177787703407226394805010432.00000000
0.02500000, 0.04500000, 123835979726368860696215552.00000000
0.03500000, 0.04500000, -55446484410837141458780160.00000000
0.04500000, 0.04500000, -13748739163831145821372416.00000000
0.05500000, 0.04500000, 72837978116237690752991232.00000000
0.06500000, 0.04500000, -115280439459392455616495616.00000000
0.07500000, 0.04500000, 140942680996212639759597568.00000000
0.08500000, 0.04500000, -154286194180701461472608256.00000000
0.09500000, 0.04500000, 159344024996175393920647168.00000000
0.10500000, 0.04500000, -157121739975636876066291712.00000000
0.11500000, 0.04500000, 147175717165687423853658112.00000000
0.12500000, 0.04500000, -130218550703387442755403776.00000000
0.13500000, 0.04500000, 108825021241313497318424576.00000000
0.14500000, 0.04500000, -86501391121557000070103040.00000000
0.15500000, 0.04500000, 66461959779301829367562240.00000000
0.16500000, 0.04500000, -50612531566487881780297728.00000000
0.17500000, 0.04500000, 39117500023138272122241024.00000000
0.18500000, 0.04500000, -30848612223507029412544512.00000000
0.19500000, 0.04500000, 24370832297374941878157312.00000000
0.20500000, 0.04500000, -18755430877862345515728896.00000000
0.21500000, 0.04500000, 13730912396550534401622016.00000000
0.22500000, 0.04500000, -9292589185327443809927168.00000000
0.23500000, 0.04500000, 5269311624738727639646208.00000000
0.24500000, 0.04500000, -1170244450902546986303488.00000000
0.25500000, 0.04500000, -3688702584296834953379840.00000000
0.26500000, 0.04500000, 9852272088007580281995264.00000000
0.27500000, 0.04500000, -17286733152406810595950592.00000000
0.28500000, 0.04500000, 25055691798265557776596992.00000000
0.29500000, 0.04500000, -31304150870396086511468544.00000000
0.30500000, 0.04500000, 33568836199860048194699264.00000000
0.31500000, 0.04500000, -29374408472007348418772992.00000000
0.32500000, 0.04500000, 17061821837404142231879680.00000000
0.33500000, 0.04500000, 3380301287671423049924608.00000000
0.34500000, 0.04500000, -29850311905173609952313344.00000000
0.35500000, 0.04500000, 58312171117295339474780160.00000000
0.36500000, 0.04500000, -84080760213660400881762304.00000000
0.37500000, 0.04500000, 103960433354447034798571520.00000000
0.38500000, 0.04500000, -116889299664470698581032960.00000000
0.39500000, 0.04500000, 122304394809281090859040768.00000000
0.40500000, 0.04500000, -119331137287369057967800320.00000000
0.41500000, 0.04500000, 108232836185871649066713088.00000000
0.42500000, 0.04500000, -91736302050441437045063680.00000000
0.43500000, 0.04500000, 74414827304917886109220864.00000000
0.44500000, 0.04500000, -60890157253903170607775744.00000000
0.45500000, 0.04500000, 54384793526168405757919232.00000000
0.46500000, 0.04500000, -56167673027253893213454336.00000000
0.47500000, 0.04500000, 65663272547793523666059264.00000000
0.48500000, 0.04500000, -80720269559738677944385536.00000000
0.49500000, 0.04500000, 97980285181952563211141120.00000000
0.50500000, 0.04500000, -113661582253826131428900864.00000000
0.51500000, 0.04500000, 124060901645188156266381312.00000000
0.52500000, 0.04500000, -125636403589971563182555136.00000000
0.53500000, 0.04500000, 115849220607536891577761792.00000000
0.54500000, 0.04500000, -94216660445058562149842944.00000000
0.55500000, 0.04500000, 62331896180138033530535936.00000000
0.56500000, 0.04500000, -23652428667953273848725504.00000000
0.57500000, 0.04500000, -16410505742430549401665536.00000000
0.58500000, 0.04500000, 51172467348208069694717952.00000000
0.59500000, 0.04500000, -74632388860618795745542144.00000000
0.60500000, 0.04500000, 83823925434943238903431168.00000000
0.61500000, 0.04500000, -80024547933507148109053952.00000000
0.62500000, 0.04500000, 67861571649982993553948672.00000000
0.63500000, 0.04500000, -52939784696953427327975424.00000000
0.64500000, 0.04500000, 39531154801353748268449792.00000000
0.65500000, 0.04500000, -29433903968536049332781056.00000000
0.66500000, 0.04500000, 22224152125348796537241600.00000000
0.67500000, 0.04500000, -16423257311596027058323456.00000000
0.68500000, 0.04500000, 10752050028419158890250240.00000000
0.69500000, 0.04500000, -4773628033634875689926656.00000000
0.70500000, 0.04500000, -1264382328103003054145536.00000000
0.71500000, 0.04500000, 7051549895031794362744832.00000000
0.72500000, 0.04500000, -12739079631486699234656256.00000000
0.73500000, 0.04500000, 18965984569659418531069952.00000000
0.74500000, 0.04500000, -26175102785634721006092288.00000000
0.75500000, 0.04500000, 34693155914879567705145344.00000000
0.76500000, 0.04500000, -42875386514338307825991680.00000000
0.77500000, 0.04500000, 47300574539785997492682752.00000000
0.78500000, 0.04500000, -45425272140178018418032640.00000000
0.79500000, 0.04500000, 34632259428872536245403648.00000000
0.80500000, 0.04500000, -11858929141068168605728768.00000000
0.81500000, 0.04500000, -24382552776422952473198592.00000000
0.82500000, 0.04500000, 72031746430326564412456960.00000000
0.83500000, 0.04500000, -127578279028559028783415296.00000000
0.84500000, 0.04500000, 179326834826904244982906880.00000000
0.85500000, 0.04500000, -224066614511574088291450880.00000000
0.86500000, 0.04500000, 244777814638656051719700480.00000000
0.87500000, 0.04500000, -291004056794960160691847168.00000000
0.88500000, 0.04500000, 347095686277782879372050432.00000000
0.89500000, 0.04500000, -364810567128619104704921600.00000000
0.90500000, 0.04500000, 354116781009674159649718272.00000000