TITLE = "Linear advection equation"
VARIABLES = "x", "y", "sol"
ZONE STRANDID=1, SOLUTIONTIME=0.25, I=100, J=100, DATAPACKING=POINT
0.00500000, 0.00500000, 1181671257.95189095
0.01500000, 0.00500000, -1638318657.84187651
0.02500000, 0.00500000, 1610477052.32901001
0.03500000, 0.00500000, -1227272338.50891590
0.04500000, 0.00500000, 746683315.98137391
0.05500000, 0.00500000, -302844503.43495142
0.06500000, 0.00500000, 67791003.11442104
0.07500000, 0.00500000, 21294650.37250670
0.08500000, 0.00500000, -86576105.04560420
0.09500000, 0.00500000, 209804528.47100055
0.10500000, 0.00500000, -423732999.53960860
0.11500000, 0.00500000, 707498065.87847209
0.12500000, 0.00500000, -971296524.44432759
0.13500000, 0.00500000, 1106238004.89595079
0.14500000, 0.00500000, -1107333149.06529617
0.15500000, 0.00500000, 1136675666.50057983
0.16500000, 0.00500000, -1395122251.35671687
0.17500000, 0.00500000, 1886535597.78344011
0.18500000, 0.00500000, -2348845888.04050255
0.19500000, 0.00500000, 2481118254.79882622
0.20500000, 0.00500000, -2230557832.36389732
0.21500000, 0.00500000, 1824130284.44334531
0.22500000, 0.00500000, -1498844889.85327125
0.23500000, 0.00500000, 1230624290.75131631
0.24500000, 0.00500000, -861651635.71693754
0.25500000, 0.00500000, 425396004.83549559
0.26500000, 0.00500000, -104993271.78863184
0.27500000, 0.00500000, -29402889.75195758
0.28500000, 0.00500000, 50044053.14893784
0.29500000, 0.00500000, -38643693.05160190
0.30500000, 0.00500000, 24777440.09564511
0.31500000, 0.00500000, -11984590.27235083
0.32500000, 0.00500000, 5992331.46539218
0.33500000, 0.00500000, -11502903.81754435
0.34500000, 0.00500000, 22954992.46755797
0.35500000, 0.00500000, -30135615.02033762
0.36500000, 0.00500000, 33738713.82676531
0.37500000, 0.00500000, -54956680.11724231
0.38500000, 0.00500000, 117766130.22238034
0.39500000, 0.00500000, -194822772.28524292
0.40500000, 0.00500000, 181120431.09354645
0.41500000, 0.00500000, 9123774.14592313
0.42500000, 0.00500000, -285403531.92194456
0.43500000, 0.00500000, 398927322.49963820
0.44500000, 0.00500000, -214696573.49195760
0.45500000, 0.00500000, -53795276.10513356
0.46500000, 0.00500000, 19312490.94620332
0.47500000, 0.00500000, 370350381.56687975
0.48500000, 0.00500000, -598193870.88703179
0.49500000, 0.00500000, 65053339.61094142
0.50500000, 0.00500000, 1187191682.29002810
0.51500000, 0.00500000, -2449320262.43959236
0.52500000, 0.00500000, 3040276921.30774117
0.53500000, 0.00500000, -2820144455.35441971
0.54500000, 0.00500000, 2081441155.86031961
0.55500000, 0.00500000, -1205304186.40859151
0.56500000, 0.00500000, 451549593.70717072
0.57500000, 0.00500000, 74902778.57037070
0.58500000, 0.00500000, -360353175.14352715
0.59500000, 0.00500000, 433193978.65141404
0.60500000, 0.00500000, -375360712.52263832
0.61500000, 0.00500000, 330503694.05735886
0.62500000, 0.00500000, -450611533.33029425
0.63500000, 0.00500000, 798324691.52275860
0.64500000, 0.00500000, -1281300432.72841167
0.65500000, 0.00500000, 1817443352.72007251
0.66500000, 0.00500000, -2253445204.76356888
0.67500000, 0.00500000, 2215692274.35958099
0.68500000, 0.00500000, -1623467491.80390358
0.69500000, 0.00500000, 897473942.46111476
0.70500000, 0.00500000, -567092536.81937838
0.71500000, 0.00500000, 857442975.84591377
0.72500000, 0.00500000, -1464225872.84202337
0.73500000, 0.00500000, 1814442632.99645567
0.74500000, 0.00500000, -1610358150.68088436
0.75500000, 0.00500000, 1053978991.39847457
0.76500000, 0.00500000, -526740679.91036469
0.77500000, 0.00500000, 204694147.57168657
0.78500000, 0.00500000, -95051262.08142084
0.79500000, 0.00500000, 99525426.39086017
0.80500000, 0.00500000, -653910892.16803539
0.81500000, 0.00500000, 1561703891.15459061
0.82500000, 0.00500000, -1632896159.27860737
0.83500000, 0.00500000, 3595513059.79903126
0.84500000, 0.00500000, -3386586079.80980015
0.85500000, 0.00500000, 1951891575.95484972
0.86500000, 0.00500000, 15320151.07397062
0.87500000, 0.00500000, -1363499008.84558988
0.88500000, 0.00500000, 1496087085.78227878
0.89500000, 0.00500000, -927192926.06560254
0.90500000, 0.00500000, 529814410.08613801
0.91500000, 0.00500000, -488590745.37790823
0.92500000, 0.00500000, 434224581.67845905
0.93500000, 0.00500000, -261617564.36006624
0.94500000, 0.00500000, 256682187.11839294
0.95500000, 0.00500000, -495678609.66370636
0.96500000, 0.00500000, 663056408.98943830
0.97500000, 0.00500000, -555978896.10717225
0.98500000, 0.00500000, 428915139.40330088
0.99500000, 0.00500000, -646241747.15309012
0.00500000, 0.01500000, -514559318.44271296
0.01500000, 0.01500000, 947062519.97183919
0.02500000, 0.01500000, -948479803.85500360
0.03500000, 0.01500000, 691930731.69000947
0.04500000, 0.01500000, -350011106.43926376
0.05500000, 0.01500000, 120791773.40270919
0.06500000, 0.01500000, -31127598.42142516
0.07500000, 0.01500000, -2755219.45015898
0.08500000, 0.01500000, 68839005.75622463
0.09500000, 0.01500000, -222096183.03743392
0.10500000, 0.01500000, 477493266.87802225
0.11500000, 0.01500000, -779512184.40514088
0.12500000, 0.01500000, 1010130307.73878241
0.13500000, 0.01500000, -1081301046.61441278
0.14500000, 0.01500000, 1035287692.74203432
0.15500000, 0.01500000, -1025174605.49104261
0.16500000, 0.01500000, 1160871128.85816550
0.17500000, 0.01500000, -1374669339.24505377
0.18500000, 0.01500000, 1475996374.01093578
0.19500000, 0.01500000, -1349123550.16272545
0.20500000, 0.01500000, 1061182102.15252542
0.21500000, 0.01500000, -789213382.90363312
0.22500000, 0.01500000, 623309401.62339151
0.23500000, 0.01500000, -470174443.01707953
0.24500000, 0.01500000, 258593232.54201761
0.25500000, 0.01500000, -69653911.16200387
0.26500000, 0.01500000, -23422276.17127122
0.27500000, 0.01500000, 41935819.45603095
0.28500000, 0.01500000, -34608885.75745593
0.29500000, 0.01500000, 24975812.68012913
0.30500000, 0.01500000, -15258125.04380503
0.31500000, 0.01500000, 7720498.26173825
0.32500000, 0.01500000, -7312967.14223297
0.33500000, 0.01500000, 14145419.67956036
0.34500000, 0.01500000, -21518141.85102555
0.35500000, 0.01500000, 23082017.34327732
0.36500000, 0.01500000, -22930775.74599151
0.37500000, 0.01500000, 37877039.61972955
0.38500000, 0.01500000, -78024307.04828966
0.39500000, 0.01500000, 112092602.30233040
0.40500000, 0.01500000, -74787696.82970007
0.41500000, 0.01500000, -42512248.82214643
0.42500000, 0.01500000, 111956510.88457264
0.43500000, 0.01500000, 38327903.47242479
0.44500000, 0.01500000, -386998649.26880431
0.45500000, 0.01500000, 631858489.94082451
0.46500000, 0.01500000, -485990012.38134789
0.47500000, 0.01500000, 105929775.27608466
0.48500000, 0.01500000, -53761086.45300072
0.49500000, 0.01500000, 677806987.16207337
0.50500000, 0.01500000, -1661275044.92182636
0.51500000, 0.01500000, 2357607613.92866850
0.52500000, 0.01500000, -2421173651.64661121
0.53500000, 0.01500000, 1956960422.47212291
0.54500000, 0.01500000, -1264063307.45146132
0.55500000, 0.01500000, 603296680.61639655
0.56500000, 0.01500000, -106024091.90521431
0.57500000, 0.01500000, -200126838.07396826
0.58500000, 0.01500000, 326247866.84868199
0.59500000, 0.01500000, -310260906.69550383
0.60500000, 0.01500000, 236029798.03635025
0.61500000, 0.01500000, -221624915.92853305
0.62500000, 0.01500000, 374785106.49223471
0.63500000, 0.01500000, -727279423.07269633
0.64500000, 0.01500000, 1199562922.90158415
0.65500000, 0.01500000, -1673113228.83639812
0.66500000, 0.01500000, 1875614020.78741074
0.67500000, 0.01500000, -1606192300.71092153
0.68500000, 0.01500000, 1104012108.85381460
0.69500000, 0.01500000, -830889395.98208249
0.70500000, 0.01500000, 1083781119.88032317
0.71500000, 0.01500000, -1693521111.07246017
0.72500000, 0.01500000, 2130552747.79311562
0.73500000, 0.01500000, -1997343209.96877480
0.74500000, 0.01500000, 1392378408.29612780
0.75500000, 0.01500000, -734328052.83683515
0.76500000, 0.01500000, 302627976.61243874
0.77500000, 0.01500000, -100585558.21952127
0.78500000, 0.01500000, 89998158.19444355
0.79500000, 0.01500000, -294242739.39810801
0.80500000, 0.01500000, 881897174.55518842
0.81500000, 0.01500000, -1904543626.82443714
0.82500000, 0.01500000, 2976544934.58655739
0.83500000, 0.01500000, -3336110990.40394115
0.84500000, 0.01500000, 2483532589.57891560
0.85500000, 0.01500000, -763128685.82407975
0.86500000, 0.01500000, -771226670.97951066
0.87500000, 0.01500000, 1177782127.67565632
0.88500000, 0.01500000, -545791310.71107984
0.89500000, 0.01500000, -133353669.96789867
0.90500000, 0.01500000, 219106887.28169435
0.91500000, 0.01500000, 261353.96251937
0.92500000, 0.01500000, -62828472.70948781
0.93500000, 0.01500000, 10931788.94804892
0.94500000, 0.01500000, -91951984.24910654
0.95500000, 0.01500000, 214200156.47174156
0.96500000, 0.01500000, -95951179.48855208
0.97500000, 0.01500000, -235481388.77539584
0.98500000, 0.01500000, 367874665.06480163
0.99500000, 0.01500000, -59989593.27743251
0.00500000, 0.02500000, 177229677.13221234
0.01500000, 0.02500000, -503648023.65644705
0.02500000, 0.02500000, 506197822.26696670
0.03500000, 0.02500000, -326633261.64614719
0.04500000, 0.02500000, 143523072.53599179
0.05500000, 0.02500000, -51613463.97239295
0.06500000, 0.02500000, 28527094.71078508
0.07500000, 0.02500000, -6822706.24582064
0.08500000, 0.02500000, -68334525.77645518
0.09500000, 0.02500000, 233975615.53481436
0.10500000, 0.02500000, -484125943.81235278
0.11500000, 0.02500000, 745246788.91212082
0.12500000, 0.02500000, -915935704.80053961
0.13500000, 0.02500000, 954205328.63600588
0.14500000, 0.02500000, -916729413.29162049
0.15500000, 0.02500000, 895773257.30249119
0.16500000, 0.02500000, -917649298.25411415
0.17500000, 0.02500000, 912461843.92253447
0.18500000, 0.02500000, -797379260.20527673
0.19500000, 0.02500000, 575271365.71919680
0.20500000, 0.02500000, -331902361.69195312
0.21500000, 0.02500000, 162552937.97128221
0.22500000, 0.02500000, -71107366.27127624
0.23500000, 0.02500000, -5489984.78931532
0.24500000, 0.02500000, 66475409.12747493
0.25500000, 0.02500000, -81495616.57838902
0.26500000, 0.02500000, 62622726.41751166
0.27500000, 0.02500000, -38367213.30722536
0.28500000, 0.02500000, 23095015.65840859
0.29500000, 0.02500000, -13930955.73742750
0.30500000, 0.02500000, 7222430.16294681
0.31500000, 0.02500000, -4320498.91694234
0.32500000, 0.02500000, 6758498.06447558
0.33500000, 0.02500000, -12053995.69785197
0.34500000, 0.02500000, 14990840.65928660
0.35500000, 0.02500000, -13244746.13602028
0.36500000, 0.02500000, 12220556.73699441
0.37500000, 0.02500000, -22586628.04863209
0.38500000, 0.02500000, 45871593.40033561
0.39500000, 0.02500000, -60262990.96303441
0.40500000, 0.02500000, 41521270.38624977
0.41500000, 0.02500000, -22235358.43671833
0.42500000, 0.02500000, 109579127.36246687
0.43500000, 0.02500000, -378841471.82615471
0.44500000, 0.02500000, 716578016.18461251
0.45500000, 0.02500000, -847142994.48986900
0.46500000, 0.02500000, 641892850.46211195
0.47500000, 0.02500000, -372762909.16202652
0.48500000, 0.02500000, 473756287.66928971
0.49500000, 0.02500000, -1017813448.17492414
0.50500000, 0.02500000, 1612655579.55407810
0.51500000, 0.02500000, -1849706135.29269004
0.52500000, 0.02500000, 1651848280.86604881
0.53500000, 0.02500000, -1189021262.57884455
0.54500000, 0.02500000, 676727876.39963639
0.55500000, 0.02500000, -257562013.77710038
0.56500000, 0.02500000, -25078706.51254781
0.57500000, 0.02500000, 175110775.87502110
0.58500000, 0.02500000, -209174121.34893394
0.59500000, 0.02500000, 167033061.26946247
0.60500000, 0.02500000, -116509835.95366852
0.61500000, 0.02500000, 136181138.87197691
0.62500000, 0.02500000, -292369128.28256685
0.63500000, 0.02500000, 595702637.65704036
0.64500000, 0.02500000, -969671836.68544006
0.65500000, 0.02500000, 1247660365.25309134
0.66500000, 0.02500000, -1225828488.08492208
0.67500000, 0.02500000, 953618285.96834230
0.68500000, 0.02500000, -745100546.43855262
0.69500000, 0.02500000, 906558805.44241667
0.70500000, 0.02500000, -1431099839.99511862
0.71500000, 0.02500000, 1935513416.99259019
0.72500000, 0.02500000, -1995255235.82160401
0.73500000, 0.02500000, 1547476265.84791279
0.74500000, 0.02500000, -909575542.11717582
0.75500000, 0.02500000, 415012662.73791718
0.76500000, 0.02500000, -150515417.79381311
0.77500000, 0.02500000, 56794248.96560568
0.78500000, 0.02500000, -98712581.64231673
0.79500000, 0.02500000, 357141665.89275956
0.80500000, 0.02500000, -977567651.05171132
0.81500000, 0.02500000, 1884446462.78418326
0.82500000, 0.02500000, -2564976968.66202068
0.83500000, 0.02500000, 2368319930.57945156
0.84500000, 0.02500000, -1225711089.22450399
0.85500000, 0.02500000, -170046192.45566744
0.86500000, 0.02500000, 893065218.43859363
0.87500000, 0.02500000, -552927311.83445859
0.88500000, 0.02500000, -232700335.86869171
0.89500000, 0.02500000, 585114096.57463193
0.90500000, 0.02500000, -386840374.84712452
0.91500000, 0.02500000, 123692889.72136110
0.92500000, 0.02500000, -63273546.06920643
0.93500000, 0.02500000, 48039087.82769544
0.94500000, 0.02500000, 16739827.24958473
0.95500000, 0.02500000, 52149552.56505756
0.96500000, 0.02500000, -382947690.87909669
0.97500000, 0.02500000, 756616306.66351485
0.98500000, 0.02500000, -780759464.97006035
0.99500000, 0.02500000, 382434833.42401695
0.00500000, 0.03500000, -123522739.56975472
0.01500000, 0.03500000, 308125441.49955451
0.02500000, 0.03500000, -272129034.64366490
0.03500000, 0.03500000, 150705595.44423124
0.04500000, 0.03500000, -61494590.45658775
0.05500000, 0.03500000, 32743708.66162722
0.06500000, 0.03500000, -27673399.20182291
0.07500000, 0.03500000, 5125076.30838043
0.08500000, 0.03500000, 70330597.37112525
0.09500000, 0.03500000, -220527006.53464326
0.10500000, 0.03500000, 426690274.06412101
0.11500000, 0.03500000, -627058113.33125806
0.12500000, 0.03500000, 762033400.24817920
0.13500000, 0.03500000, -820749031.85899067
0.14500000, 0.03500000, 831907905.20217299
0.15500000, 0.03500000, -816095433.61083126
0.16500000, 0.03500000, 756402620.19100225
0.17500000, 0.03500000, -614575984.23114586
0.18500000, 0.03500000, 381540798.55615705
0.19500000, 0.03500000, -105386725.42682604
0.20500000, 0.03500000, -136162535.77088678
0.21500000, 0.03500000, 283087924.89492977
0.22500000, 0.03500000, -332956049.94836676
0.23500000, 0.03500000, 307142026.48854834
0.24500000, 0.03500000, -228541454.53691071
0.25500000, 0.03500000, 137317939.60087702
0.26500000, 0.03500000, -67356204.39212717
0.27500000, 0.03500000, 29360154.89173086
0.28500000, 0.03500000, -13121226.14445502
0.29500000, 0.03500000, 5975544.08274164
0.30500000, 0.03500000, -2590639.28792395
0.31500000, 0.03500000, 2432773.06660521
0.32500000, 0.03500000, -4903890.58268918
0.33500000, 0.03500000, 7529798.35167872
0.34500000, 0.03500000, -7643676.07496079
0.35500000, 0.03500000, 5556534.26365450
0.36500000, 0.03500000, -5739584.45529466
0.37500000, 0.03500000, 14131876.09468690
0.38500000, 0.03500000, -31780941.23315175
0.39500000, 0.03500000, 52603424.89156178
0.40500000, 0.03500000, -79072542.79490438
0.41500000, 0.03500000, 146655815.78403214
0.42500000, 0.03500000, -311482763.73677719
0.43500000, 0.03500000, 571211545.57011962
0.44500000, 0.03500000, -791673015.07729924
0.45500000, 0.03500000, 794848413.85904932
0.46500000, 0.03500000, -598943367.02983141
0.47500000, 0.03500000, 480816589.73272645
0.48500000, 0.03500000, -674825893.71331418
0.49500000, 0.03500000, 1076991874.03659201
0.50500000, 0.03500000, -1368257721.91994715
0.51500000, 0.03500000, 1359632447.76118231
0.52500000, 0.03500000, -1094308817.03180504
0.53500000, 0.03500000, 722750228.25440168
0.54500000, 0.03500000, -382215908.09445620
0.55500000, 0.03500000, 134482831.36271787
0.56500000, 0.03500000, 17366375.64689058
0.57500000, 0.03500000, -85838787.21962053
0.58500000, 0.03500000, 90226088.96368492
0.59500000, 0.03500000, -62757845.92495080
0.60500000, 0.03500000, 45803129.19210901
0.61500000, 0.03500000, -82973958.03994204
0.62500000, 0.03500000, 211204015.40094000
0.63500000, 0.03500000, -426034520.44174469
0.64500000, 0.03500000, 648208606.01270592
0.65500000, 0.03500000, -738464415.06708634
0.66500000, 0.03500000, 641484772.71802378
0.67500000, 0.03500000, -502036534.39142007
0.68500000, 0.03500000, 555847340.41683102
0.69500000, 0.03500000, -903244592.54459548
0.70500000, 0.03500000, 1359232528.11625576
0.71500000, 0.03500000, -1580029159.54584551
0.72500000, 0.03500000, 1390260824.69380713
0.73500000, 0.03500000, -934238529.76417065
0.74500000, 0.03500000, 489715396.76591170
0.75500000, 0.03500000, -205034670.71824810
0.76500000, 0.03500000, 70327959.89454153
0.77500000, 0.03500000, -36339748.91612695
0.78500000, 0.03500000, 82600293.76005763
0.79500000, 0.03500000, -314432158.18333769
0.80500000, 0.03500000, 888145297.36818194
0.81500000, 0.03500000, -1510552871.28368711
0.82500000, 0.03500000, 1742420399.33644819
0.83500000, 0.03500000, -1232245857.74669528
0.84500000, 0.03500000, 256723796.00989315
0.85500000, 0.03500000, 513730439.51358360
0.86500000, 0.03500000, -549721035.65462089
0.87500000, 0.03500000, -22336711.79653135
0.88500000, 0.03500000, 518302052.14129537
0.89500000, 0.03500000, -526595996.50031161
0.90500000, 0.03500000, 264708918.00738293
0.91500000, 0.03500000, -102329673.58241872
0.92500000, 0.03500000, 68329203.17932674
0.93500000, 0.03500000, -38499459.51479085
0.94500000, 0.03500000, 51994591.70912788
0.95500000, 0.03500000, -253123513.71151543
0.96500000, 0.03500000, 608940717.37816048
0.97500000, 0.03500000, -845783434.25390399
0.98500000, 0.03500000, 720525563.76378870
0.99500000, 0.03500000, -294869517.52717316
0.00500000, 0.04500000, 188616210.61211783
0.01500000, 0.04500000, -235088381.68472922
0.02500000, 0.04500000, 161245981.96342963
0.03500000, 0.04500000, -75326227.83623889
0.04500000, 0.04500000, 32599975.59251127
0.05500000, 0.04500000, -23949992.44013938
0.06500000, 0.04500000, 21819025.24551819
0.07500000, 0.04500000, -773989.24436389
0.08500000, 0.04500000, -62962888.59588285
0.09500000, 0.04500000, 179835031.75999287
0.10500000, 0.04500000, -333537361.72405970
0.11500000, 0.04500000, 491266149.63275993
0.12500000, 0.04500000, -629550829.53471589
0.13500000, 0.04500000, 738599727.15389752
0.14500000, 0.04500000, -802962420.70449960
0.15500000, 0.04500000, 793439157.45993376
0.16500000, 0.04500000, -677827875.87934482
0.17500000, 0.04500000, 440038407.77999294
0.18500000, 0.04500000, -105105736.21528974
0.19500000, 0.04500000, -252042201.10586029
0.20500000, 0.04500000, 532445194.31367379
0.21500000, 0.04500000, -660158912.22119522
0.22500000, 0.04500000, 621785400.47069597
0.23500000, 0.04500000, -466883724.63305593
0.24500000, 0.04500000, 281718338.94500220
0.25500000, 0.04500000, -136013343.70289358
0.26500000, 0.04500000, 53061435.38085154
0.27500000, 0.04500000, -17776633.11113047
0.28500000, 0.04500000, 5749640.54669606
0.29500000, 0.04500000, -1839089.69855226
0.30500000, 0.04500000, 782596.54306720
0.31500000, 0.04500000, -1382289.21818563
0.32500000, 0.04500000, 2747715.14741702
0.33500000, 0.04500000, -3478364.31894968
0.34500000, 0.04500000, 2808494.33242397
0.35500000, 0.04500000, -1836849.44672305
0.36500000, 0.04500000, 3703361.57723678
0.37500000, 0.04500000, -13563776.52039931
0.38500000, 0.04500000, 38176273.03176680
0.39500000, 0.04500000, -85383700.54161730
0.40500000, 0.04500000, 165196649.90754196
0.41500000, 0.04500000, -289619759.28156281
0.42500000, 0.04500000, 459480211.00164413
0.43500000, 0.04500000, -630916952.58320522
0.44500000, 0.04500000, 707431520.31418908
0.45500000, 0.04500000, -633638442.85999727
0.46500000, 0.04500000, 516375239.35173482
0.47500000, 0.04500000, -551011068.03130126
0.48500000, 0.04500000, 789247837.80884171
0.49500000, 0.04500000, -1062065424.88103926
0.50500000, 0.04500000, 1164841132.00071049
0.51500000, 0.04500000, -1043363223.42988479
0.52500000, 0.04500000, 781110375.98456848
0.53500000, 0.04500000, -499339899.45848590
0.54500000, 0.04500000, 276761341.80677509
0.55500000, 0.04500000, -128784701.79758576
0.56500000, 0.04500000, 41153256.28069483
0.57500000, 0.04500000, 1701060.67792243
0.58500000, 0.04500000, -13109185.05835826
0.59500000, 0.04500000, 10669902.09311673
0.60500000, 0.04500000, -15509042.11127687
0.61500000, 0.04500000, 50832506.48874427
0.62500000, 0.04500000, -135982091.64095294
0.63500000, 0.04500000, 257351752.95793092
0.64500000, 0.04500000, -350324805.13786328
0.65500000, 0.04500000, 347791651.50415486
0.66500000, 0.04500000, -277402809.00426483
0.67500000, 0.04500000, 266238076.84333199
0.68500000, 0.04500000, -429517411.55230463
0.69500000, 0.04500000, 735084415.42798400
0.70500000, 0.04500000, -989362108.37590671
0.71500000, 0.04500000, 1005189460.88072205
0.72500000, 0.04500000, -782199740.08537531
0.73500000, 0.04500000, 477742531.41020739
0.74500000, 0.04500000, -235051742.78852761
0.75500000, 0.04500000, 93570835.01860763
0.76500000, 0.04500000, -30790937.49033344
0.77500000, 0.04500000, 23305895.41896638
0.78500000, 0.04500000, -71736025.03272146
0.79500000, 0.04500000, 187796050.56773102
0.80500000, 0.04500000, -662273250.64608550
0.81500000, 0.04500000, 977231995.09645784
0.82500000, 0.04500000, -918902258.74460793
0.83500000, 0.04500000, 425773828.61103833
0.84500000, 0.04500000, 154812528.61263901
0.85500000, 0.04500000, -389358684.26450235
0.86500000, 0.04500000, 138539689.55272326
0.87500000, 0.04500000, 268403767.46883833
0.88500000, 0.04500000, -427706624.99185282
0.89500000, 0.04500000, 296786512.02260661
0.90500000, 0.04500000, -133337366.99733859
0.91500000, 0.04500000, 67785110.68813583
0.92500000, 0.04500000, -45498325.85506310
0.93500000, 0.04500000, 31481176.10740089
0.94500000, 0.04500000, -101781247.98669921
0.95500000, 0.04500000, 310316277.14448798
0.96500000, 0.04500000, -546392362.82558632
0.97500000, 0.04500000, 598432482.51164639
0.98500000, 0.04500000, -384127058.35380781
0.99500000, 0.04500000, 47552784.79880752
0.00500000, 0.05500000, -228384535.99364543
0.01500000, 0.05500000, 180585106.35292524
0.02500000, 0.05500000, -95370663.11746261
0.03500000, 0.05500000, 36334864.84955294
0.04500000, 0.05500000, -15067968.56387232
0.05500000, 0.05500000, 14662782.11240079
0.06500000, 0.05500000, -15639606.58658558
0.07500000, 0.05500000, 98501.35044140
0.08500000, 0.05500000, 46683794.55621065
0.09500000, 0.05500000, -129932057.12758157
0.10500000, 0.05500000, 244964757.96586740
0.11500000, 0.05500000, -385918610.93485802
0.12500000, 0.05500000, 545590376.53383183
0.13500000, 0.05500000, -698859039.90012574
0.14500000, 0.05500000, 796021414.70576334
0.15500000, 0.05500000, -779780033.45034683
0.16500000, 0.05500000, 607679886.97372770
0.17500000, 0.05500000, -274616166.00648355
0.18500000, 0.05500000, -163633454.88898584
0.19500000, 0.05500000, 588973689.95609963
0.20500000, 0.05500000, -863676779.51718879
0.21500000, 0.05500000, 904567675.73435009
0.22500000, 0.05500000, -736824173.70867383
0.23500000, 0.05500000, 475505108.24969310
0.24500000, 0.05500000, -242619698.42629591
0.25500000, 0.05500000, 97099927.14879023
0.26500000, 0.05500000, -30489235.16465513
0.27500000, 0.05500000, 7787665.55580080
0.28500000, 0.05500000, -1756300.22146024
0.29500000, 0.05500000, 372714.02854299
0.30500000, 0.05500000, -262953.58703423
0.31500000, 0.05500000, 688460.55315597
0.32500000, 0.05500000, -1160698.63451344
0.33500000, 0.05500000, 1165082.37864042
0.34500000, 0.05500000, -732033.00985956
0.35500000, 0.05500000, 861385.45578704
0.36500000, 0.05500000, -4588305.06355012
0.37500000, 0.05500000, 19805745.50852189
0.38500000, 0.05500000, -60770394.01656352
0.39500000, 0.05500000, 141978133.14693147
0.40500000, 0.05500000, -263950250.07411891
0.41500000, 0.05500000, 404532389.78434086
0.42500000, 0.05500000, -525757079.57571721
0.43500000, 0.05500000, 585623595.12866223
0.44500000, 0.05500000, -560842268.20161366
0.45500000, 0.05500000, 494561271.08424461
0.46500000, 0.05500000, -500729058.77867234
0.47500000, 0.05500000, 653444631.87291348
0.48500000, 0.05500000, -884660297.76949489
0.49500000, 0.05500000, 1036458057.25197983
0.50500000, 0.05500000, -1009256537.71528697
0.51500000, 0.05500000, 828867288.07915175
0.52500000, 0.05500000, -593897365.42918134
0.53500000, 0.05500000, 392296819.71681058
0.54500000, 0.05500000, -252671313.53008994
0.55500000, 0.05500000, 158979642.43406984
0.56500000, 0.05500000, -91219480.34355064
0.57500000, 0.05500000, 44333986.84241582
0.58500000, 0.05500000, -17782906.65361736
0.59500000, 0.05500000, 5047276.63485658
0.60500000, 0.05500000, 5807198.51430760
0.61500000, 0.05500000, -29512696.37115569
0.62500000, 0.05500000, 75162374.27547607
0.63500000, 0.05500000, -127951233.24149731
0.64500000, 0.05500000, 151219390.61796710
0.65500000, 0.05500000, -130157650.04434215
0.66500000, 0.05500000, 107109437.11388566
0.67500000, 0.05500000, -154330969.68606347
0.68500000, 0.05500000, 301513614.78776121
0.69500000, 0.05500000, -483572930.45618176
0.70500000, 0.05500000, 580847776.94385540
0.71500000, 0.05500000, -531257167.40638435
0.72500000, 0.05500000, 381172012.23435891
0.73500000, 0.05500000, -220145974.19163805
0.74500000, 0.05500000, 102536375.74964833
0.75500000, 0.05500000, -37361512.44728714
0.76500000, 0.05500000, 10582394.05741102
0.77500000, 0.05500000, -15589047.45121111
0.78500000, 0.05500000, 69679609.52531876
0.79500000, 0.05500000, -207413185.93951064
0.80500000, 0.05500000, 374282220.15664756
0.81500000, 0.05500000, -474815548.97633410
0.82500000, 0.05500000, 363230010.43027467
0.83500000, 0.05500000, -52993725.10573040
0.84500000, 0.05500000, -182653749.94490242
0.85500000, 0.05500000, 152735231.00721231
0.86500000, 0.05500000, 70940709.09116951
0.87500000, 0.05500000, -245000862.95248532
0.88500000, 0.05500000, 236303509.52840945
0.89500000, 0.05500000, -141431791.52194983
0.90500000, 0.05500000, 71251270.04514292
0.91500000, 0.05500000, -45699162.74599256
0.92500000, 0.05500000, 29212556.86548233
0.93500000, 0.05500000, -28610480.69707440
0.94500000, 0.05500000, 100471440.08841591
0.95500000, 0.05500000, -234247570.24428716
0.96500000, 0.05500000, 310342849.02142549
0.97500000, 0.05500000, -247227295.43941182
0.98500000, 0.05500000, 50547472.69013431
0.99500000, 0.05500000, 156831030.61217400
0.00500000, 0.06500000, 190926545.32366848
0.01500000, 0.06500000, -108585084.24962421
0.02500000, 0.06500000, 38176380.80476367
0.03500000, 0.06500000, -4448552.42360648
0.04500000, 0.06500000, -55341.19794024
0.05500000, 0.06500000, -7794094.31210769
0.06500000, 0.06500000, 12634590.55514162
0.07500000, 0.06500000, -2624890.48255721
0.08500000, 0.06500000, -29602941.39033253
0.09500000, 0.06500000, 88428982.03250256
0.10500000, 0.06500000, -180927773.25148058
0.11500000, 0.06500000, 316389121.84431803
0.12500000, 0.06500000, -489071717.90436393
0.13500000, 0.06500000, 659156928.33002949
0.14500000, 0.06500000, -756957056.47106004
0.15500000, 0.06500000, 685511991.89636040
0.16500000, 0.06500000, -423284240.61855686
0.17500000, 0.06500000, 33838381.65488353
0.18500000, 0.06500000, 431602446.07232314
0.19500000, 0.06500000, -837789522.35635424
0.20500000, 0.06500000, 1014773018.02638352
0.21500000, 0.06500000, -920768171.72725940
0.22500000, 0.06500000, 650071614.47475934
0.23500000, 0.06500000, -358428503.10837758
0.24500000, 0.06500000, 152868729.50336620
0.25500000, 0.06500000, -49654591.56187151
0.26500000, 0.06500000, 12129633.62979276
0.27500000, 0.06500000, -2248516.54796414
0.28500000, 0.06500000, 324331.07618683
0.29500000, 0.06500000, -48098.48557839
0.30500000, 0.06500000, 106224.24641175
0.31500000, 0.06500000, -267988.25874938
0.32500000, 0.06500000, 358587.24374022
0.33500000, 0.06500000, -269048.11261166
0.34500000, 0.06500000, 172610.10339348
0.35500000, 0.06500000, -1040237.15092094
0.36500000, 0.06500000, 7063641.30376390
0.37500000, 0.06500000, -30028027.48841123
0.38500000, 0.06500000, 88956324.15761200
0.39500000, 0.06500000, -195228965.33710387
0.40500000, 0.06500000, 329918641.22103310
0.41500000, 0.06500000, -443730036.18040079
0.42500000, 0.06500000, 491649375.63184369
0.43500000, 0.06500000, -469427944.23838693
0.44500000, 0.06500000, 423713588.26844364
0.45500000, 0.06500000, -433267131.58411431
0.46500000, 0.06500000, 553219053.35625672
0.47500000, 0.06500000, -750034816.77716124
0.48500000, 0.06500000, 911091660.83705759
0.49500000, 0.06500000, -935368253.09500051
0.50500000, 0.06500000, 813990279.76034963
0.51500000, 0.06500000, -622319664.46932149
0.52500000, 0.06500000, 448614734.27970451
0.53500000, 0.06500000, -330006630.40437579
0.54500000, 0.06500000, 248228577.37547216
0.55500000, 0.06500000, -174494539.29432577
0.56500000, 0.06500000, 104409393.29566479
0.57500000, 0.06500000, -50419978.56051296
0.58500000, 0.06500000, 19107096.72372463
0.59500000, 0.06500000, -4971040.15590116
0.60500000, 0.06500000, -2980034.41447136
0.61500000, 0.06500000, 15138276.13875400
0.62500000, 0.06500000, -34622066.67256758
0.63500000, 0.06500000, 51223431.82172318
0.64500000, 0.06500000, -51156175.43245310
0.65500000, 0.06500000, 39097877.43765363
0.66500000, 0.06500000, -42946165.48704488
0.67500000, 0.06500000, 91183103.11470824
0.68500000, 0.06500000, -180075742.01847848
0.69500000, 0.06500000, 263377425.53953665
0.70500000, 0.06500000, -289097063.93743503
0.71500000, 0.06500000, 246705737.26497835
0.72500000, 0.06500000, -167708479.66051388
0.73500000, 0.06500000, 90698828.46139701
0.74500000, 0.06500000, -37522381.99060792
0.75500000, 0.06500000, 11041023.91186650
0.76500000, 0.06500000, -2998307.97251063
0.77500000, 0.06500000, 10094518.41738248
0.78500000, 0.06500000, -44682349.24565224
0.79500000, 0.06500000, 103283881.28693435
0.80500000, 0.06500000, -159246098.18807313
0.81500000, 0.06500000, 155424743.12313876
0.82500000, 0.06500000, -90242374.06757011
0.83500000, 0.06500000, -42987133.34121668
0.84500000, 0.06500000, 87387991.83490461
0.85500000, 0.06500000, -14275707.87455490
0.86500000, 0.06500000, -99117418.56120512
0.87500000, 0.06500000, 144351259.27114373
0.88500000, 0.06500000, -121843410.07570031
0.89500000, 0.06500000, 89587212.99501976
0.90500000, 0.06500000, -62247319.87512086