TITLE = "Linear advection equation"
VARIABLES = "x", "y", "sol"
ZONE STRANDID=1, SOLUTIONTIME=4.2, I=100, J=100, DATAPACKING=POINT
0.00500000, 0.00500000, -1208542751121793066467318188629798442051086226310655847189812335206007388600585429498905917029996820268081191850509260210289410176720690516499581778558215391808684878585459756729062620166042419200.00000000
0.01500000, 0.00500000, 859027462811224935636435430566588635158478110416252155015548762400210406140588697910751989242019673570267093585445211182069316185006993653234452309811337421908725317390656039950609158933860843520.00000000
0.02500000, 0.00500000, -587863197157320763696104251765595042840506682314191938456140288122119524200138133885558338533009776915049136127297181739556641081142726419175689952824571828154946713817558219313922102941154541568.00000000
0.03500000, 0.00500000, 356339166886187462170423958565010272641364886927662539115603595129390304973625793123936584181363343967715002078495276506463856702163025814472801003140207953347124085717364005260922938197998043136.00000000
0.04500000, 0.00500000, -183791490970221856154238430546077328001005690704348571404013571841205329628699644692458066137820063508118909944226108247267161858573363199569599577415803765360360450255529782836020095061185265664.00000000
0.05500000, 0.00500000, 25430881845586601454722049669652404846862574455642994180844514298869366071858219622056572505989692813643250246217115467649005725756557867544545531786266100032154084745030913546957780374150709248.00000000
0.06500000, 0.00500000, 136660290949703563835283602742632783488596609587474156762823075892017538725737018089776553527009676930318887532834172586854733179124176649874207939264574339467833833133422275475261654398786338816.00000000
0.07500000, 0.00500000, -302560500702107014799873496351750778223578818976766389118080917374400116578974894828901882227846217188590354584944100651567707401173769337331926389648929560511760321305991172496925060008519925760.00000000
0.08500000, 0.00500000, 476016798545710717709631481304269723133693488957451335033475535510178648220533835490328156808735649301632767380690115039834119878327136075185042443492315817691774887748217125164168790805829386240.00000000
0.09500000, 0.00500000, -661843126120549698811793183851405818310468822387079853272878769123293056707677036523587051756319672901898227028772109039855207784522399598010051025117890960754631857044423029791151614305847214080.00000000
0.10500000, 0.00500000, 860584363650636304250855034178390067407585037257894688689365027497069564742745924588080617678446988399734809267547441424408860072454043441619694415550487902283235178224027526391125814858267754496.00000000
0.11500000, 0.00500000, -1062386577127718666617406124778007769662788333450341421486265524311233341550956504908175175626950252821460689600517165214079447472293024749898580610360015619518069825299753534145704210723506225152.00000000
0.12500000, 0.00500000, 1264945519699872238787310922503409194218955424304161259745965899349097037610340408967184053054734686234339095017297098436942858586891683897292774048392406101506167379370089201617353786071451697152.00000000
0.13500000, 0.00500000, -1504543710701513864537599672242694279914668194586574575315956982901006223455139645056246063280048419349406160794401574813363588878934755508556969431968953225520166783497017353709914852625225875456.00000000
0.14500000, 0.00500000, 1785997312698769910009284312631890701210402345334272346439710589365751612506861029873676427725788044448015548109009158655830277917548008480079228015531277722600636640439503149366141804748753338368.00000000
0.15500000, 0.00500000, -2074972083935044642161849395533002848927555889722781525792846541105090666020254399884567709245662050433575150650878381412255599617761388453658360820630451263887922899390273468025795108486936264704.00000000
0.16500000, 0.00500000, 2375047200862524992774654430779251544169279248369275617539765899592938114284130990597928968215092918825459726206158830290395449923818967589417857683304896445302415989488613111192560063507372965888.00000000
0.17500000, 0.00500000, -2691079200480699672844955874682981941783149841902627928443759359817343996065218981887403908521605452295459784402495157952083212172292284832741281264913045478622131271453084307660907556497050828800.00000000
0.18500000, 0.00500000, 3000042072694662325697571934210302269391789079714979272826567475622822735804111144337621280876348068522304769537744787104945759534576621660722510734099991972155039314972879312003396210151219265536.00000000
0.19500000, 0.00500000, -3273039190883402569286287360613613759587467809756336176455272044717150481946182715415274909767337794956125164637466924050802561112360405608200493692952660711226448223164242105775035947585070170112.00000000
0.20500000, 0.00500000, 3481602908922812712028433989993619013769297548872209818191664782788577887755015050101761178068829850869966694291914105916581579465146999511144964199495856403619758671407577793183864030795501928448.00000000
0.21500000, 0.00500000, -3612206126927663986675057161681943485975170928185823228126477406031070537613913180191030571489479170685868964507454167382653729019196791502568080641703292607678175149991448201232599099865997246464.00000000
0.22500000, 0.00500000, 3673822170968092873579238631179799693134890782609367971684964352226569764524196524421693444027853203165499167931460346085474521274162691450592179266897727535153246886810607354770709507673778290688.00000000
0.23500000, 0.00500000, -3651756681263122512849345016372724721513186139253745391330372638113807180266595479546918782640582096363599000732124415736575949687996769146696946008408518828415924303218314207678181521213062381568.00000000
0.24500000, 0.00500000, 3561209257285375286731371238212674404545653850718801388999552902180236154887759112110951376641683771406509089317736104884490531228631936732885868871215433409465791837546747375156637915790203420672.00000000
0.25500000, 0.00500000, -3481101187719709707250029493255420409747106148382390328395805164330660638835322668188714743026630615077484983648423353843598753666357267463557793625188772335613097765467300106596444173702178799616.00000000
0.26500000, 0.00500000, 3408243163360848269986635481675332712766795847828132221548590571441288084659418901375286820329709648989461733813106554500735140512893529371570920286079330115419128876919421580515282395921890934784.00000000
0.27500000, 0.00500000, -3278968645819798329176081616129754369558904203579971884896028885123255582347513452578897961801826068683482806234166107818975993065212268453875696471644397054267413140015820558308806788548579557376.00000000
0.28500000, 0.00500000, 3098158169454462847923111520811456064338876257943085675506436428526932848302703754896668615208735221257969097571426965114118471785619238831166128666780145128952723056544341782013427802940496674816.00000000
0.29500000, 0.00500000, -2890163213495862696518627677519710950505470861516967433385328586674276289692838405083073394397367517201388732815130070467257702844553217730848322287061466662626084005683080732061765075014262980608.00000000
0.30500000, 0.00500000, 2660728983377381200182760172670481200447850852399592682416012802825427079383164807483492981895820596078025472554372509385164312711717690722730725975396862625122411880073212459687900624861301571584.00000000
0.31500000, 0.00500000, -2409772910853317477471931352972923158281984592224480314631517106544866600184390583809827316882694261798158174965460144866595938121608246493726244886010641674552328485378683290319092085154820128768.00000000
0.32500000, 0.00500000, 2131096133352617330493390568219846379038542870493318797461140140657574091517170134907547970880071395763936289786364240270381792809636103929746506134315335747775648110200828067034250908867072360448.00000000
0.33500000, 0.00500000, -1818747222631646424727115801021903446996319820742976324578109063369619058414517921803587590512472181953097180953996440919549824138092826223202566462110633966996882170445988214028393650135618289664.00000000
0.34500000, 0.00500000, 1472008126323191037979191877720049574516157539328226654128721332446879971794329625318994003962600628551471707132582777256040376253155542094381044795757881795612558981755255668997608805624189026304.00000000
0.35500000, 0.00500000, -1097274512692421415781071540600546938907447766346170318434262772047281733217350917957615588257447708330267135367646380157365411919699280796536752237191208390842491403591202534501752525539151708160.00000000
0.36500000, 0.00500000, 705177338652283626518838497132724266446525393566231581535140559513378733437580205359110310392071461179446809430241515596602219138442693982359154183392009514133764390110196070658717313691212054528.00000000
0.37500000, 0.00500000, -306135953087408872227325407970227538133274694046778932140477548366729245281656453259980767502324386160843698746022132593372354549883011638528608193963185691816689446625605237817286264081247895552.00000000
0.38500000, 0.00500000, -91521882898305086748822514237155069816976178430162668628793738585570808301453733373290836536710053510064287038079524033165133846270995224054505543805159282792977895020628551408118425623856152576.00000000
0.39500000, 0.00500000, 481373612586615414000642908049033082839508756837079373612706510673926848969362764637338828539301488519633516221535509379896234485056522126011553453526448691796364960523064649587312118020335206400.00000000
0.40500000, 0.00500000, -860039790811279450945744328785641219781505667539435711197236741001925316722356452321400159741650282901930624046911236402387979447462462961404286178216440067727063984456059194107056626948951244800.00000000
0.41500000, 0.00500000, 1229169917178920568596406821796526254665924842650315209998320753688540463991408562619258111949314192549511856559744205284733311196064228901490664231906203537155868223391194574943492998272611516416.00000000
0.42500000, 0.00500000, -1593467607707964696590648864833173512849981840225576737118473790398515897647389465262497532666108107773151731016104357596305315902528724082074859280558231591184198792486624385330531485828492820480.00000000
0.43500000, 0.00500000, 1955437354844514322865053516258294928611048350759608293543675718171051266839537995841210182065437002909159291788602191798654814206602631377544063812960084551276671702123184819623750419313298767872.00000000
0.44500000, 0.00500000, -2313989251196765834132431592596187617187103129528236200743531485062659203521019078067770814780932889852564587149057322606693856941575128258456592009805161621005052459576709549138473227398103957504.00000000
0.45500000, 0.00500000, 2668228467772240289061437223608635528796861309949929896909442036477448426109985510834559947407168321241913735306151039421813955953983122963964708703287999371884751222599953118472877355535595208704.00000000
0.46500000, 0.00500000, -3018935082427163829170677741817238119876406336985679494957511657476580303992462618844779890957796010129510506946446714339508929558440349262931729254942868823006505974477290561873433374943961153536.00000000
0.47500000, 0.00500000, 3364536914609176781873719942306776786428318939860372859696383891228238207597064142792589970621142273713105182730718115916281986034848888767777946351156792325527775683472594829579423514907098742784.00000000
0.48500000, 0.00500000, -3697900355240577069751598188141539228872177527616310200099885552804121936169956324877830339158804688218222719080731314485756940130090944181463134103687424890128411674157986680430571336214675193856.00000000
0.49500000, 0.00500000, 3873098905642269514289567729816114622262658110053277422926665729668216758520347538778682121782456779106953446644399214234299721929758543448091664267575590549398643571402636371080629269329466097664.00000000
0.50500000, 0.00500000, -4157251107016982652918129845748524353553562544350320192150656406036352717687323905898852770788071196795122392301906845137415490805199074371793121870520212362891665117164718835278561239438261747712.00000000
0.51500000, 0.00500000, 4547707642255180074829462976961812779423125666464383295385361643413937369689617763684665710270716653155382728401431455216741282122003274287114468370554079150166743736174451400877252688084597735424.00000000
0.52500000, 0.00500000, -4780739247010342130369037518546168722129151368646766678685003320212214174322487266802641521993839845854609207075591433277450761236939025933923593433856152776030935710485723048169143418888078229504.00000000
0.53500000, 0.00500000, 5013997646128747636106085378372147730142807875961349931631526765659272342164101243638867212234288103740064912186877092434051811046693486064737349421303536887749552620539276468318801383972092772352.00000000
0.54500000, 0.00500000, -5263208783983337723046865073339977373330850333142200549419355644128108083416051548738105141039615125185878054866404753909325614311575681404740687500776067956070663829115976912287609058544576364544.00000000
0.55500000, 0.00500000, 5548416510200666387091586227254863776667307312266473020456927581291132599874491702159784295068735876476632776838803045290693625672841590609310919147651679242114485046883097964596679445805612924928.00000000
0.56500000, 0.00500000, -5906972869361238618536895728970782864336061001816098056150561064285056591076440175856555764025302900592077303249604958874259541559120363839977792179061025954284729310026874417112666476379438579712.00000000
0.57500000, 0.00500000, 6343662169105117905854619482173616806417362993031258114313990461917450526155054107133412813959837758797667237472544473205454858200023495814816261348636081718080147199136000511868008264702749573120.00000000
0.58500000, 0.00500000, -6797031438252843489141998877648414256181875211060964017045343137851179752236841796267101085165544459002112299766803265140393816784903516818396784547892177019310315879359544638023588312233172533248.00000000
0.59500000, 0.00500000, 7244296084950504978159137972093198067684334618180454922161508912642245403762307457103461581293266591713427877245007768106136095459227619570359983945529537854552290472980357952290504941252584144896.00000000
0.60500000, 0.00500000, -7733190500978737945705781291048539593015053387297576889817747904518029790630396274082040563901633426736457812528364603857705757293818868746761103753402011568517617877402317584215939097204721975296.00000000
0.61500000, 0.00500000, 8314025816794152526297929385372967291266032861108374260874578189116188696549693232625930901158553415367615336833956142945165041889693034131466007272072927931415906390112645684600504511130339639296.00000000
0.62500000, 0.00500000, -9017515103907489643569783201938389575921655277258737465892477409211689474456104707114792746270466287120119192516882261459871040645177503597034540211982379495468096103123696590783423262958238564352.00000000
0.63500000, 0.00500000, 9891495972683748205757974637250491162645759978530459201163833379588084548499503904944071352770376518429875650941793552799600014317231909029013947780970663727022424663290506702189701795157140045824.00000000
0.64500000, 0.00500000, -11030634161926846034828290354278415801014454063920602904581695218002496211299267723568299662459688985610178025351685611516065417271662842143611445695880423148388718471460149564513805146010079461376.00000000
0.65500000, 0.00500000, 12447827110640513471983169491283535768688085272793701442396965389173151439937679324706216871806544474190198371326945325309190167606119945856647613472932438710272382038878921445286650511595988320256.00000000
0.66500000, 0.00500000, -14029390736800262240920634901980150959171817238819267872323014731041374969613017778293517357027148665936775039168146877526086481017110676708657848164355207363361333285454996795345425008540237430784.00000000
0.67500000, 0.00500000, 15643339749582378246981839552900049638417226728509418882488175774657085189334359602798142936542999320910792281382054830043488355033045611829348208432754459595167783968330545003981811307155124387840.00000000
0.68500000, 0.00500000, -17079714176233817913988605753683668131006651542201006064913099408832384900520823943438626753378765212455354357944592446839390437840822588694614217308829975968795867710439701177287238205247976374272.00000000
0.69500000, 0.00500000, 18356984482907672470302412164413143799808427205045445663617950171290159245704666560699011207539321478015390415169551694243047250222085337395772426522588663105478558133872729200545471303381808054272.00000000
0.70500000, 0.00500000, -19782863772966109607272329910269895368400121858063678619597006302915434861857752424575247086615531569603671364227889944938917377354981347664249442845399652369714952958570493919172120189618484150272.00000000
0.71500000, 0.00500000, 21331110555398300561366361191879531934634278440386402237076510987291335795658945460935993544762609912518399578249558495951197181723164178915014717385471543339250531729299805672379080215224299552768.00000000
0.72500000, 0.00500000, -22890705837009555471462215952727304510993414139151863996920976513703367685765506308122897105663713966043292810121749109170311760895292664988086361761611265642709994275337936901077432052842036723712.00000000
0.73500000, 0.00500000, 24262274668127571651178511674160726452577448462609412686701235644217516528752743750057357037693594282416473104569539262994642844849662144927052540836520040960441381460713666664898486414466783117312.00000000
0.74500000, 0.00500000, -25172311243636206536769191117364093246158411236409016643467754071399269850298609458229783173983328767462431225198304206368354722520425523782009735561533064132979748714359441526276492170257821073408.00000000
0.75500000, 0.00500000, 25896079960879448022758632813208386070325895807948455780429119753435651794352780096300578329130719728831808514682349028450083124829597166065502600134279914560788003519814154098090483171819111055360.00000000
0.76500000, 0.00500000, -23424208361671304364692619374370480608394719530084411259360813168350037292334150667153945145365689176517573357538856638688967416450199622717573838419633191051227152202102707817956174880214221848576.00000000
0.77500000, 0.00500000, 23858880968782827175560548091274956545984214048272779756480263792381548881955242233189910074234727761327200518367996276612850630867397480609313900830355363711447371108445722586847328032530511167488.00000000
0.78500000, 0.00500000, -27179477261639358892658224493641226679654688664569676935805149318295407151590155133250468875872738849785877314871279756542426944773305526930829044902504532767814875410726804769198450491812697079808.00000000
0.79500000, 0.00500000, 27347074936705764829382345370255273329671505477275977965678527439966067046237446051038903414218897037485498274377969638302124862166296977426867970116413827220995256644821048750394167545174993928192.00000000
0.80500000, 0.00500000, -27600013407959022310017459575337039504203473815968820800041629188832713673573520505767492905917927882662279242681917846486957735363331285202912575826765258096973987868413299504552162443653692784640.00000000
0.81500000, 0.00500000, 27493881962320965477845167344704857397016920982220435345064499160128309701991243704024145608051881880484478163032386908015151599423213475978934591316584648353838389392379149674548645574109210607616.00000000
0.82500000, 0.00500000, -25744120255291998641009795638953312155725926621297114188459196302972565466559831885107244873700957628054824925092588555498382418872835800878919206060334101101186663452855254056122814040243880067072.00000000
0.83500000, 0.00500000, 23517937554634376916764985383906705026265695012213946081452460968912108590189660740739552177972187383889482240643063868124325051852106321969997510881427727076662978612218481902013242708138160816128.00000000
0.84500000, 0.00500000, -21970566128136575067255135471789058318257049936718112691825338273364353435583738519617559576355866115956044766679202335380747957032605626852530888176259972015618007308257463735766397072341586673664.00000000
0.85500000, 0.00500000, 19981896838903197377869144421639057981584766570732560764322078712012942756629408065329896326227449672729810922545453642137763224355481808559689976854770640373806192600155101276142563467815429341184.00000000
0.86500000, 0.00500000, -18571137324380267275376321698341391937895737695664734048250450232201911688324184067272995045407296559013285083407430561419559573897656835719084276585646360261063804525025740747332037031057726373888.00000000
0.87500000, 0.00500000, 17143575126207724918777683420323100377260056369828922436549045248072760180998420744445107796732916392315420419934009539762332601431981187758356364647707817324279521071818579723926927319871592071168.00000000
0.88500000, 0.00500000, -15066857750086530214670422356091405387683268728091202605101877390445197155921876707668307518538990547471520441015741316220117332189766513731868862325958999461480554972119107258810586504743197081600.00000000
0.89500000, 0.00500000, 13333425084539623197684523597876624026694344726365167312445861868003039205315089521948428063755536219505635971269145295573652519943749422825416081709324522225288586996490418135722714837174991192064.00000000
0.90500000, 0.00500000, -11693456846882260962220412176527339605504418293697895565842874204079307869316035675739477874232192248434397422656943665758016148795927271952739093639481820374766329091905149096196953500481121943552.00000000
0.91500000, 0.00500000, 10020681040215584542690160473988955490617274734567257939519797329752536898556617213103246840863755435198841749130378017746656040304451936336295528312601181430036524146893663411985617966091219238912.00000000
0.92500000, 0.00500000, -8410263613026976085035336560877695044937495212538869896391298857877807314888886204563567471532818549500910444360582287764796968565434597589774148575275070525168634496210153891363543536942924693504.00000000
0.93500000, 0.00500000, 6980018556653730039685206512862785800044765212807603820225543632440837717506825656550356727342535466374136745188313474555821790852359291288009993890722779044926028900788492432563665330234086916096.00000000
0.94500000, 0.00500000, -5760713390323992820931077312337459929987082356970986700271174673681055161813878786546642511201291744470949205713573025067179363668321636324279502432636333556133485497509767872779832384437784412160.00000000
0.95500000, 0.00500000, 4715384846029538741657763986383850322206380477640007543615974556245140296045128331885592341112126925303659793539081572160621571329917617916555329475797808607461459186255938654193563608855340908544.00000000
0.96500000, 0.00500000, -3696290908072900951422201665415930471016930748327513840972625947781072281844971708508025127262627920745450223254124132107971502752441291498199099701720238099000009544423506975546034161021091840000.00000000
0.97500000, 0.00500000, 2789512389381239230081876447033702342496528755594221412561587524208222292801017492828649094587522562734269067051383408622819120611336155002476880024448082969333219334693120002640676678560483639296.00000000
0.98500000, 0.00500000, -2179551701652917563341920141964831835196147410661420589622811117125531355002615525808574954640442817790620978501001566370673716301549516887656578219068309820729792866905117470655567819934166679552.00000000
0.99500000, 0.00500000, 1683234742312239188744405216551108564316425762492982301665041549865244912524640294832722883343082145351344084387397462859452936550552237921996132078576798584529198810341817233840351730405814042624.00000000
0.00500000, 0.01500000, 1091062540384580689421617328628563892699484813779515421619716005893258298731538850145221149040130061783627742379298518999593394273257273716826057580502255079006955809555460497322213875248340664320.00000000
0.01500000, 0.01500000, -758357721628418066663961416195754426902233258143223375284424338193493493268287854139390292873628470276801934191487335838790819398490962947431205668203560058164018066556748171076584492185679822848.00000000
0.02500000, 0.01500000, 459784737714600178898301750030860172347248890553753352377795947703721673578926682983140141898768232976433415686689838778715611889229911739316960981723747795582590499117592728364476134696310276096.00000000
0.03500000, 0.01500000, -215020101424430572951196811135493043820219587121054908270787947553160474384290174898711871349087888960632943942489337065464702732459410059936231071054052474399915084992559547524194986336052051968.00000000
0.04500000, 0.01500000, -2346648037033045572684132462447403514621189202634434244812893207249054296398319054049042489335860268230919025141336308334563002252443780998974737787857196667169211339895304512876508606466359296.00000000
0.05500000, 0.01500000, 218419196759616764744060707727867185824696039412351773439267836099642129552949327325657077650209651742325474970686495512267032644690520462863287048600776922002874720456694778522406598912033947648.00000000
0.06500000, 0.01500000, -436963645041487045833834952719418078893767704505579788191377568919892134343724238698558822546371246613485650485863885941866115931984313881787737980370554514694217444560716930583062661237426880512.00000000
0.07500000, 0.01500000, 663878310079657318099344509087389464785725415312368841105696658418247479605030488773119318392378653273470167195942210504558063681942756247472990453225102694421868958108817232890169077632965017600.00000000
0.08500000, 0.01500000, -901456888638615854279077638201638471861266679818577034342780063027863776805160001438004875506786857336604137193060969645815497570519295231777247324639854342417118267530712685969191203465154527232.00000000
0.09500000, 0.01500000, 1153715897600009391910608414909260788926134540544657268023598252852806463387651920881765558023220030806212817055315360620220431229099514196007946664088680345532114062584769515458138912119909777408.00000000
0.10500000, 0.01500000, -1421249796254981633434141376266005753050868364716686784834493571512322546857125157426775866212289993763853139610185506828751805592888564460686705301439971462821689204936403808800987162861975371776.00000000
0.11500000, 0.01500000, 1701694947624708982449812694263831162237991897452916468024657117771937426050598595424397597447479794194230453010227040341936337338858660924622065953505714653698657537273546620524332076834689646592.00000000
0.12500000, 0.01500000, -1999985377805068694228189563156439139625381645657356341346845104194240843431348712963739586360579412716592554930893251530563981305976051875831962873656647986908670559539881084048754954311519174656.00000000
0.13500000, 0.01500000, 2329643032165904552591720785560507579525495446396766365026916679191306319837363572214507652350865705290823583733132108184409484129012095683434691470275059020119562509303863845595619284550600884224.00000000
0.14500000, 0.01500000, -2678432468154432528645823518241213534938778281156762208501882451129283454823841953445188394299007799236629083408498639963683438688675655137173126046852619089164017810837347514208488642667299733504.00000000
0.15500000, 0.01500000, 3038476612765211288226693235674617477421729157967377375470576553684449785104271319219862086563953086013558017441168066675851289201686784946622422107749210863090599697684034787103568851937473331200.00000000
0.16500000, 0.01500000, -3409638527863400490391784992426191082202195673849127149807447832098719666911832030834434150744818203831804747044362784457072566037401374904467840570011435932057325402453531749537601382779096924160.00000000
0.17500000, 0.01500000, 3778406940424895387743051763647318436029852990151567727643110685324727044188594842980827598380145794715442787792754513949522479302216339414873160069258899420416505624582891425384138162198171090944.00000000
0.18500000, 0.01500000, -4119835050449615014728746156706471079956781485816583187591708737322256509171227298261714176129564908622775312289595750384258488265431248695322611252494040977648946431295706591963354246743370760192.00000000
0.19500000, 0.01500000, 4411958641009431771172634450678411712365444209569428081570210288842323009761116045378653167308060030697048243980151561829262379270966572460787897999106876540819734246190407935470478082524615540736.00000000
0.20500000, 0.01500000, -4640914852633068182902796984419856501619274264665698770282905531856090399995447683337955914585440624467132726424408040387111692759563643016963304552932902989935830906945058062705663389544856158208.00000000
0.21500000, 0.01500000, 4798561582091792593776485695526460756252924474677188085609964943154483684471459045045572491240070300869895717236588033017605112303616833931873489281475679709226209315346535572654810288363264802816.00000000
0.22500000, 0.01500000, -4873307436860841040404941624339521474443591950307777132275843097046260423064505118916929576481464831328328037155456268401577559234188108346986955848556681410616366022606939333331227600675412115456.00000000
0.23500000, 0.01500000, 4843879273153111360629801104248569921969972557262333895066963459178869890624488412060869877876392502522952399798177530139470818593415304940186537202372244225670530775232811355634577098970207617024.00000000
0.24500000, 0.01500000, -4739379811577680027733000264511377938681313827613111678711222371597318956711538134240948912049586962368437697327583064643288506164993393632244850127450297976506167976394755355959848500627897319424.00000000
0.25500000, 0.01500000, 4608752449793408408755319673784674158977670745030230994047858572377030849326448837418226163822816353677873723441988502342926440054541725620476707918072963818199258495349719755654600352682924310528.00000000
0.26500000, 0.01500000, -4432360287874975366565911234526622234888986943326923929274556627627282922487229491405233950189087977185462657618060944735300815737578183808259412751280743348216231472530525143326916815512955518976.00000000
0.27500000, 0.01500000, 4201452838394038148439620149423566744161445195825283061623535138172545523630672156049371509653704259063477505668394556696443693240159929300185504766515902363880213729103547463534243262827010719744.00000000
0.28500000, 0.01500000, -3934585406229967070628881372682112698712810196394612202818774364852941313697642279165024685109428901028721186504304302656867107753683081150521738363194196996860692802759720453906249727134639587328.00000000