TITLE = "Linear advection equation"
VARIABLES = "x", "y", "sol"
ZONE STRANDID=1, SOLUTIONTIME=0.5, I=100, J=100, DATAPACKING=POINT
0.00500000, 0.00500000, 987197311895138467840.00000000
0.01500000, 0.00500000, 468687216731910701056.00000000
0.02500000, 0.00500000, -1584666137422675836928.00000000
0.03500000, 0.00500000, 2245609450928869736448.00000000
0.04500000, 0.00500000, -2518874610419255738368.00000000
0.05500000, 0.00500000, 2626450453308581609472.00000000
0.06500000, 0.00500000, -2707946285917658939392.00000000
0.07500000, 0.00500000, 2682992509554695602176.00000000
0.08500000, 0.00500000, -2481625205550638694400.00000000
0.09500000, 0.00500000, 2141243266836148781056.00000000
0.10500000, 0.00500000, -1722901857363866681344.00000000
0.11500000, 0.00500000, 1297627942791275347968.00000000
0.12500000, 0.00500000, -941883591994292568064.00000000
0.13500000, 0.00500000, 690979869057194786816.00000000
0.14500000, 0.00500000, -534356751765643853824.00000000
0.15500000, 0.00500000, 437892196121026363392.00000000
0.16500000, 0.00500000, -361982573108226883584.00000000
0.17500000, 0.00500000, 290299086042850951168.00000000
0.18500000, 0.00500000, -230309808345226870784.00000000
0.19500000, 0.00500000, 187518067301364891648.00000000
0.20500000, 0.00500000, -155899197204962803712.00000000
0.21500000, 0.00500000, 121385049987913138176.00000000
0.22500000, 0.00500000, -64054066134341517312.00000000
0.23500000, 0.00500000, -34512902309174607872.00000000
0.24500000, 0.00500000, 175970185304419926016.00000000
0.25500000, 0.00500000, -336035986753395884032.00000000
0.26500000, 0.00500000, 469301718448010166272.00000000
0.27500000, 0.00500000, -517102962927849439232.00000000
0.28500000, 0.00500000, 418967783767007428608.00000000
0.29500000, 0.00500000, -133346580428726272000.00000000
0.30500000, 0.00500000, -337785406829313916928.00000000
0.31500000, 0.00500000, 949144915768980013056.00000000
0.32500000, 0.00500000, -1607022541258770612224.00000000
0.33500000, 0.00500000, 2091078006231754342400.00000000
0.34500000, 0.00500000, -2320783697367850287104.00000000
0.35500000, 0.00500000, 2456009556682089168896.00000000
0.36500000, 0.00500000, -2596541405172852588544.00000000
0.37500000, 0.00500000, 2635787234718494228480.00000000
0.38500000, 0.00500000, -2368821232511651151872.00000000
0.39500000, 0.00500000, 1888962824617397059584.00000000
0.40500000, 0.00500000, -1415962202450011881472.00000000
0.41500000, 0.00500000, 1037467245573916983296.00000000
0.42500000, 0.00500000, -884358690760527314944.00000000
0.43500000, 0.00500000, 922507761442295644160.00000000
0.44500000, 0.00500000, -1128430309991670611968.00000000
0.45500000, 0.00500000, 1525933294068019232768.00000000
0.46500000, 0.00500000, -1985272902613314043904.00000000
0.47500000, 0.00500000, 2358633180703211913216.00000000
0.48500000, 0.00500000, -2642012152341502885888.00000000
0.49500000, 0.00500000, 2699610768460238290944.00000000
0.50500000, 0.00500000, -2450502805719805329408.00000000
0.51500000, 0.00500000, 2028542856367125037056.00000000
0.52500000, 0.00500000, -1413633715863406247936.00000000
0.53500000, 0.00500000, 634140833896305917952.00000000
0.54500000, 0.00500000, 200509073399728046080.00000000
0.55500000, 0.00500000, -968319534982277234688.00000000
0.56500000, 0.00500000, 1491704968112035594240.00000000
0.57500000, 0.00500000, -1662295851667578945536.00000000
0.58500000, 0.00500000, 1527487373147038023680.00000000
0.59500000, 0.00500000, -1228170852304169730048.00000000
0.60500000, 0.00500000, 904722763730770198528.00000000
0.61500000, 0.00500000, -654818381814998237184.00000000
0.62500000, 0.00500000, 505271165978326663168.00000000
0.63500000, 0.00500000, -423989316355171287040.00000000
0.64500000, 0.00500000, 357529085372776906752.00000000
0.65500000, 0.00500000, -268534618001746821120.00000000
0.66500000, 0.00500000, 151788469217780498432.00000000
0.67500000, 0.00500000, -24660083172670586880.00000000
0.68500000, 0.00500000, -95188428529652891648.00000000
0.69500000, 0.00500000, 207506384988652568576.00000000
0.70500000, 0.00500000, -331058164693857271808.00000000
0.71500000, 0.00500000, 488252220588536365056.00000000
0.72500000, 0.00500000, -685249401153909030912.00000000
0.73500000, 0.00500000, 900387327723670077440.00000000
0.74500000, 0.00500000, -1079146712588809142272.00000000
0.75500000, 0.00500000, 1136752970009556025344.00000000
0.76500000, 0.00500000, -981460756666091175936.00000000
0.77500000, 0.00500000, 477519850393254559744.00000000
0.78500000, 0.00500000, 69903644494002814976.00000000
0.79500000, 0.00500000, -955429710774075129856.00000000
0.80500000, 0.00500000, 2144257924281917767680.00000000
0.81500000, 0.00500000, -3499866884879051390976.00000000
0.82500000, 0.00500000, 4151661386500429316096.00000000
0.83500000, 0.00500000, -5080111810177147076608.00000000
0.84500000, 0.00500000, 4182744143562191929344.00000000
0.85500000, 0.00500000, -6725309316308891860992.00000000
0.86500000, 0.00500000, 7714841502102363045888.00000000
0.87500000, 0.00500000, -7820758045841913020416.00000000
0.88500000, 0.00500000, 6827867563657805168640.00000000
0.89500000, 0.00500000, -5418866860624164421632.00000000
0.90500000, 0.00500000, 3985984094683510865920.00000000
0.91500000, 0.00500000, -2891943442668756402176.00000000
0.92500000, 0.00500000, 2336680395266040266752.00000000
0.93500000, 0.00500000, -2348199354518727294976.00000000
0.94500000, 0.00500000, 2653729557046108356608.00000000
0.95500000, 0.00500000, -3175119786030708817920.00000000
0.96500000, 0.00500000, 3891473759069436641280.00000000
0.97500000, 0.00500000, -4155952637675810848768.00000000
0.98500000, 0.00500000, 3620128650452165197824.00000000
0.99500000, 0.00500000, -1355762497901705560064.00000000
0.00500000, 0.01500000, -307767078687774539776.00000000
0.01500000, 0.01500000, -1152577166711899029504.00000000
0.02500000, 0.01500000, 2180602789738986340352.00000000
0.03500000, 0.01500000, -2656673727291985494016.00000000
0.04500000, 0.01500000, 2819054866267548155904.00000000
0.05500000, 0.01500000, -2965501990636155305984.00000000
0.06500000, 0.01500000, 3080102936439848697856.00000000
0.07500000, 0.01500000, -2996440468057680248832.00000000
0.08500000, 0.01500000, 2700638822349534134272.00000000
0.09500000, 0.01500000, -2274498012869429559296.00000000
0.10500000, 0.01500000, 1786257261080096538624.00000000
0.11500000, 0.01500000, -1313552440219928625152.00000000
0.12500000, 0.01500000, 938915413426352816128.00000000
0.13500000, 0.01500000, -694303351061610233856.00000000
0.14500000, 0.01500000, 549463264104983166976.00000000
0.15500000, 0.01500000, -443923378240461275136.00000000
0.16500000, 0.01500000, 335414835201577517056.00000000
0.17500000, 0.01500000, -218420616607685672960.00000000
0.18500000, 0.01500000, 101028250133794193408.00000000
0.19500000, 0.01500000, 11056374777720922112.00000000
0.20500000, 0.01500000, -114895614283410358272.00000000
0.21500000, 0.01500000, 212664348281089064960.00000000
0.22500000, 0.01500000, -312647081608198356992.00000000
0.23500000, 0.01500000, 422380947427759423488.00000000
0.24500000, 0.01500000, -539678223508185546752.00000000
0.25500000, 0.01500000, 648679930749815881728.00000000
0.26500000, 0.01500000, -718081119974582386688.00000000
0.27500000, 0.01500000, 701635239482588004352.00000000
0.28500000, 0.01500000, -548376354498210693120.00000000
0.29500000, 0.01500000, 224625309177286361088.00000000
0.30500000, 0.01500000, 260799578631047774208.00000000
0.31500000, 0.01500000, -847444575159295672320.00000000
0.32500000, 0.01500000, 1433660185202214305792.00000000
0.33500000, 0.01500000, -1810487791347656818688.00000000
0.34500000, 0.01500000, 2007415896455235502080.00000000
0.35500000, 0.01500000, -2102930862798227898368.00000000
0.36500000, 0.01500000, 2128623776676497588224.00000000
0.37500000, 0.01500000, -1997355399058202034176.00000000
0.38500000, 0.01500000, 1653804193618509692928.00000000
0.39500000, 0.01500000, -1307138018930744623104.00000000
0.40500000, 0.01500000, 1007932340495409348608.00000000
0.41500000, 0.01500000, -824209759163908096000.00000000
0.42500000, 0.01500000, 818878982948576821248.00000000
0.43500000, 0.01500000, -923189796127057117184.00000000
0.44500000, 0.01500000, 1180038160924168028160.00000000
0.45500000, 0.01500000, -1535121113845157330944.00000000
0.46500000, 0.01500000, 1846015980813385465856.00000000
0.47500000, 0.01500000, -2092143324844163858432.00000000
0.48500000, 0.01500000, 2233988679774169464832.00000000
0.49500000, 0.01500000, -2151656951825904435200.00000000
0.50500000, 0.01500000, 1853752571200061833216.00000000
0.51500000, 0.01500000, -1352450197800318140416.00000000
0.52500000, 0.01500000, 660632732014412300288.00000000
0.53500000, 0.01500000, 122210792285330079744.00000000
0.54500000, 0.01500000, -887068099129188679680.00000000
0.55500000, 0.01500000, 1466798876019252789248.00000000
0.56500000, 0.01500000, -1722863924657139744768.00000000
0.57500000, 0.01500000, 1641176740372301217792.00000000
0.58500000, 0.01500000, -1343585846675250085888.00000000
0.59500000, 0.01500000, 981785217095288356864.00000000
0.60500000, 0.01500000, -682668089182090821632.00000000
0.61500000, 0.01500000, 500623560371118931968.00000000
0.62500000, 0.01500000, -415457452377487704064.00000000
0.63500000, 0.01500000, 367718002277247811584.00000000
0.64500000, 0.01500000, -303830644042860986368.00000000
0.65500000, 0.01500000, 204013794761543516160.00000000
0.66500000, 0.01500000, -81810303892335919104.00000000
0.67500000, 0.01500000, -37313929598542741504.00000000
0.68500000, 0.01500000, 140633517272819597312.00000000
0.69500000, 0.01500000, -239817406305451245568.00000000
0.70500000, 0.01500000, 361310660782300987392.00000000
0.71500000, 0.01500000, -522810580613449318400.00000000
0.72500000, 0.01500000, 718361202105248382976.00000000
0.73500000, 0.01500000, -914889602719415271424.00000000
0.74500000, 0.01500000, 1042626539102419550208.00000000
0.75500000, 0.01500000, -999896073219134586880.00000000
0.76500000, 0.01500000, 695904116794669268992.00000000
0.77500000, 0.01500000, -141780128024100749312.00000000
0.78500000, 0.01500000, -637239120164815503360.00000000
0.79500000, 0.01500000, 1758571661165699530752.00000000
0.80500000, 0.01500000, -3097135540445292527616.00000000
0.81500000, 0.01500000, 4392829167599245852672.00000000
0.82500000, 0.01500000, -4635671655064532942848.00000000
0.83500000, 0.01500000, 5593318791696608133120.00000000
0.84500000, 0.01500000, -5770482347358747099136.00000000
0.85500000, 0.01500000, 6928632947541746384896.00000000
0.86500000, 0.01500000, -7861157923954253365248.00000000
0.87500000, 0.01500000, 7243838795846426558464.00000000
0.88500000, 0.01500000, -5981706844361163014144.00000000
0.89500000, 0.01500000, 4456094814817565540352.00000000
0.90500000, 0.01500000, -3176678044684378439680.00000000
0.91500000, 0.01500000, 2386080549152475840512.00000000
0.92500000, 0.01500000, -2150470618258188009472.00000000
0.93500000, 0.01500000, 2412276644874409738240.00000000
0.94500000, 0.01500000, -2774174697069209452544.00000000
0.95500000, 0.01500000, 3624874656869705580544.00000000
0.96500000, 0.01500000, -4509406363775091605504.00000000
0.97500000, 0.01500000, 4395373082611139739648.00000000
0.98500000, 0.01500000, -3502231443273192308736.00000000
0.99500000, 0.01500000, 1990361433414109233152.00000000
0.00500000, 0.02500000, -403942670039077617664.00000000
0.01500000, 0.02500000, 1763161932025621381120.00000000
0.02500000, 0.02500000, -2569988533898320019456.00000000
0.03500000, 0.02500000, 2883034726904966938624.00000000
0.04500000, 0.02500000, -3051675641900451233792.00000000
0.05500000, 0.02500000, 3243195216233130622976.00000000
0.06500000, 0.02500000, -3300984680533784002560.00000000
0.07500000, 0.02500000, 3112098028050158977024.00000000
0.08500000, 0.02500000, -2735941350893579927552.00000000
0.09500000, 0.02500000, 2256275823451713830912.00000000
0.10500000, 0.02500000, -1737041889836064571392.00000000
0.11500000, 0.02500000, 1270357029037140869120.00000000
0.12500000, 0.02500000, -935118031861106868224.00000000
0.13500000, 0.02500000, 730152313606318325760.00000000
0.14500000, 0.02500000, -591248694344797388800.00000000
0.15500000, 0.02500000, 455842914288781754368.00000000
0.16500000, 0.02500000, -302786144369029808128.00000000
0.17500000, 0.02500000, 137253220696554225664.00000000
0.18500000, 0.02500000, 31162864411940061184.00000000
0.19500000, 0.02500000, -191503063575903993856.00000000
0.20500000, 0.02500000, 334366156498228871168.00000000
0.21500000, 0.02500000, -457652532967746043904.00000000
0.22500000, 0.02500000, 566574212450595110912.00000000
0.23500000, 0.02500000, -668662073507520446464.00000000
0.24500000, 0.02500000, 768418313399995990016.00000000
0.25500000, 0.02500000, -860694602467440590848.00000000
0.26500000, 0.02500000, 923029118253281968128.00000000
0.27500000, 0.02500000, -913562254113054785536.00000000
0.28500000, 0.02500000, 782116892581723504640.00000000
0.29500000, 0.02500000, -496354928865652768768.00000000
0.30500000, 0.02500000, 70005812063238709248.00000000
0.31500000, 0.02500000, 429246298748175908864.00000000
0.32500000, 0.02500000, -905457424041010659328.00000000
0.33500000, 0.02500000, 1234677846602499489792.00000000
0.34500000, 0.02500000, -1434203137248989282304.00000000
0.35500000, 0.02500000, 1465618555046778634240.00000000
0.36500000, 0.02500000, -1408469104804872847360.00000000
0.37500000, 0.02500000, 1233352198806986293248.00000000
0.38500000, 0.02500000, -1034473651307666735104.00000000
0.39500000, 0.02500000, 853816675030989799424.00000000
0.40500000, 0.02500000, -719455526625799176192.00000000
0.41500000, 0.02500000, 672054348252249587712.00000000
0.42500000, 0.02500000, -736636011839091376128.00000000
0.43500000, 0.02500000, 880110230987777245184.00000000
0.44500000, 0.02500000, -1113195812115118555136.00000000
0.45500000, 0.02500000, 1342124355825245880320.00000000
0.46500000, 0.02500000, -1539414492073463382016.00000000
0.47500000, 0.02500000, 1672018668850485133312.00000000
0.48500000, 0.02500000, -1700191547852523044864.00000000
0.49500000, 0.02500000, 1558048093953399193600.00000000
0.50500000, 0.02500000, -1216334909404792750080.00000000
0.51500000, 0.02500000, 668985261838668660736.00000000
0.52500000, 0.02500000, 16184641784949964800.00000000
0.53500000, 0.02500000, -742362545335593598976.00000000
0.54500000, 0.02500000, 1346728792062999134208.00000000
0.55500000, 0.02500000, -1690503763512046125056.00000000
0.56500000, 0.02500000, 1705797525520511401984.00000000
0.57500000, 0.02500000, -1461738198016136577024.00000000
0.58500000, 0.02500000, 1095596263417762152448.00000000
0.59500000, 0.02500000, -749961739272135770112.00000000
0.60500000, 0.02500000, 509489567463564771328.00000000
0.61500000, 0.02500000, -380140448102211911680.00000000
0.62500000, 0.02500000, 313507496466247581696.00000000
0.63500000, 0.02500000, -251854082868879032320.00000000
0.64500000, 0.02500000, 163905884054024912896.00000000
0.65500000, 0.02500000, -54419641445747073024.00000000
0.66500000, 0.02500000, -51045788605360168960.00000000
0.67500000, 0.02500000, 131856929162468425728.00000000
0.68500000, 0.02500000, -190995305690564624384.00000000
0.69500000, 0.02500000, 255088989316318068736.00000000
0.70500000, 0.02500000, -353341807609902792704.00000000
0.71500000, 0.02500000, 492838692108295405568.00000000
0.72500000, 0.02500000, -656015356652253085696.00000000
0.73500000, 0.02500000, 799146207028299694080.00000000
0.74500000, 0.02500000, -837115535854114963456.00000000
0.75500000, 0.02500000, 667687533901207044096.00000000
0.76500000, 0.02500000, -227892861726201282560.00000000
0.77500000, 0.02500000, -435230099572286816256.00000000
0.78500000, 0.02500000, 1346706200537041207296.00000000
0.79500000, 0.02500000, -2492479101420691783680.00000000
0.80500000, 0.02500000, 3624600618899705692160.00000000
0.81500000, 0.02500000, -4661303201451784273920.00000000
0.82500000, 0.02500000, 5036711580347426406400.00000000
0.83500000, 0.02500000, -5304615156082391646208.00000000
0.84500000, 0.02500000, 6150074520255894388736.00000000
0.85500000, 0.02500000, -7179056074818046656512.00000000
0.86500000, 0.02500000, 6878561524210418581504.00000000
0.87500000, 0.02500000, -5779095095139174973440.00000000
0.88500000, 0.02500000, 4216508240424812412928.00000000
0.89500000, 0.02500000, -3019588511078040993792.00000000
0.90500000, 0.02500000, 2259124748545472331776.00000000
0.91500000, 0.02500000, -1892601714052855496704.00000000
0.92500000, 0.02500000, 1935220799124381368320.00000000
0.93500000, 0.02500000, -2368725939410587090944.00000000
0.94500000, 0.02500000, 3064145210726783385600.00000000
0.95500000, 0.02500000, -4144019219630528659456.00000000
0.96500000, 0.02500000, 4522285348790984507392.00000000
0.97500000, 0.02500000, -4047858344302749941760.00000000
0.98500000, 0.02500000, 2855789034428659924992.00000000
0.99500000, 0.02500000, -1207296335523472736256.00000000
0.00500000, 0.03500000, 1116068238723491037184.00000000
0.01500000, 0.03500000, -2185095538484989394944.00000000
0.02500000, 0.03500000, 2743935427050148462592.00000000
0.03500000, 0.03500000, -2980721766143682936832.00000000
0.04500000, 0.03500000, 3166829598724701814784.00000000
0.05500000, 0.03500000, -3305835183505533829120.00000000
0.06500000, 0.03500000, 3258667427854499184640.00000000
0.07500000, 0.03500000, -2995476456424182120448.00000000
0.08500000, 0.03500000, 2585719094554315980800.00000000
0.09500000, 0.03500000, -2099298479972044242944.00000000
0.10500000, 0.03500000, 1616317464466369806336.00000000
0.11500000, 0.03500000, -1230396694801589993472.00000000
0.12500000, 0.03500000, 972173647146820304896.00000000
0.13500000, 0.03500000, -795852221285371084800.00000000
0.14500000, 0.03500000, 634910414202279559168.00000000
0.15500000, 0.03500000, -455303570870108684288.00000000
0.16500000, 0.03500000, 257290387497065152512.00000000
0.17500000, 0.03500000, -52202355358298652672.00000000
0.18500000, 0.03500000, -146266172137308307456.00000000
0.19500000, 0.03500000, 324434622083564699648.00000000
0.20500000, 0.03500000, -474318285381972656128.00000000
0.21500000, 0.03500000, 597088625855873941504.00000000
0.22500000, 0.03500000, -701846445740147343360.00000000
0.23500000, 0.03500000, 802657038981880610816.00000000
0.24500000, 0.03500000, -912385546117757009920.00000000
0.25500000, 0.03500000, 1032393892660833419264.00000000
0.26500000, 0.03500000, -1142124282032572596224.00000000
0.27500000, 0.03500000, 1196418575473708105728.00000000
0.28500000, 0.03500000, -1139767889403477622784.00000000
0.29500000, 0.03500000, 937958319825542709248.00000000
0.30500000, 0.03500000, -607188549506447704064.00000000
0.31500000, 0.03500000, 214346234320372662272.00000000
0.32500000, 0.03500000, 154845038220955975680.00000000
0.33500000, 0.03500000, -432930885673214345216.00000000
0.34500000, 0.03500000, 594005340907380932608.00000000
0.35500000, 0.03500000, -657563421906780946432.00000000
0.36500000, 0.03500000, 662928591261877403648.00000000
0.37500000, 0.03500000, -637971527721805283328.00000000
0.38500000, 0.03500000, 595096603035583381504.00000000
0.39500000, 0.03500000, -546819700438671032320.00000000
0.40500000, 0.03500000, 515207153686482714624.00000000
0.41500000, 0.03500000, -531427216165704695808.00000000
0.42500000, 0.03500000, 613913866598773686272.00000000
0.43500000, 0.03500000, -752586971188439547904.00000000
0.44500000, 0.03500000, 915722207923621199872.00000000
0.45500000, 0.03500000, -1064585046719669862400.00000000
0.46500000, 0.03500000, 1174893798810873495552.00000000
0.47500000, 0.03500000, -1227207119196390948864.00000000
0.48500000, 0.03500000, 1184567583828037861376.00000000
0.49500000, 0.03500000, -997556554415206563840.00000000
0.50500000, 0.03500000, 629192094048821706752.00000000
0.51500000, 0.03500000, -99656404967344685056.00000000
0.52500000, 0.03500000, -529748283422193483776.00000000
0.53500000, 0.03500000, 1122900730767502606336.00000000
0.54500000, 0.03500000, -1538121515650065367040.00000000
0.55500000, 0.03500000, 1674948097008224960512.00000000
0.56500000, 0.03500000, -1538566698407235682304.00000000
0.57500000, 0.03500000, 1225239380213787000832.00000000
0.58500000, 0.03500000, -868166683399330594816.00000000
0.59500000, 0.03500000, 570106420282113589248.00000000
0.60500000, 0.03500000, -366784579621125619712.00000000
0.61500000, 0.03500000, 235684506133221572608.00000000
0.62500000, 0.03500000, -132767379858251022336.00000000
0.63500000, 0.03500000, 28209776267601375232.00000000
0.64500000, 0.03500000, 78381257434103480320.00000000
0.65500000, 0.03500000, -166121862943790202880.00000000
0.66500000, 0.03500000, 214338055664176267264.00000000
0.67500000, 0.03500000, -222304817537036845056.00000000
0.68500000, 0.03500000, 214689480792020418560.00000000
0.69500000, 0.03500000, -228990521076324696064.00000000
0.70500000, 0.03500000, 288738469907359793152.00000000
0.71500000, 0.03500000, -386998149204500480000.00000000
0.72500000, 0.03500000, 494469037579501043712.00000000
0.73500000, 0.03500000, -553975093368230051840.00000000
0.74500000, 0.03500000, 478013485558005891072.00000000
0.75500000, 0.03500000, -194032028104975155200.00000000
0.76500000, 0.03500000, -319257747466419961856.00000000
0.77500000, 0.03500000, 1017395844255403606016.00000000
0.78500000, 0.03500000, -1880073196509426352128.00000000
0.79500000, 0.03500000, 2779322096472175935488.00000000
0.80500000, 0.03500000, -3610418687012048994304.00000000
0.81500000, 0.03500000, 4324044836989063659520.00000000
0.82500000, 0.03500000, -4507239375645552672768.00000000
0.83500000, 0.03500000, 5077285215579601371136.00000000
0.84500000, 0.03500000, -5963100856454864699392.00000000
0.85500000, 0.03500000, 5977298644986075545600.00000000
0.86500000, 0.03500000, -5262961031852476858368.00000000
0.87500000, 0.03500000, 3800836774510755577856.00000000
0.88500000, 0.03500000, -2576353949615761391616.00000000
0.89500000, 0.03500000, 1944028851827370098688.00000000
0.90500000, 0.03500000, -1580011648352348274688.00000000
0.91500000, 0.03500000, 1560649941177261359104.00000000
0.92500000, 0.03500000, -1798172338549785362432.00000000
0.93500000, 0.03500000, 2394774159444968210432.00000000
0.94500000, 0.03500000, -3329384448561317412864.00000000
0.95500000, 0.03500000, 4044229079904712916992.00000000
0.96500000, 0.03500000, -4010704669026075803648.00000000
0.97500000, 0.03500000, 3212005332036023222272.00000000
0.98500000, 0.03500000, -1884563207818259988480.00000000
0.99500000, 0.03500000, 335061775180896600064.00000000
0.00500000, 0.04500000, -1608926024670831443968.00000000
0.01500000, 0.04500000, 2326876217095653163008.00000000
0.02500000, 0.04500000, -2676656024377853739008.00000000
0.03500000, 0.04500000, 2857306268314213810176.00000000
0.04500000, 0.04500000, -2999559906988977553408.00000000
0.05500000, 0.04500000, 3058202891513186222080.00000000
0.06500000, 0.04500000, -2947276929404510928896.00000000
0.07500000, 0.04500000, 2666824350719511887872.00000000
0.08500000, 0.04500000, -2278716977610808098816.00000000
0.09500000, 0.04500000, 1857432644081188339712.00000000
0.10500000, 0.04500000, -1489703783009327513600.00000000
0.11500000, 0.04500000, 1218938509230307278848.00000000
0.12500000, 0.04500000, -1021518531364637507584.00000000
0.13500000, 0.04500000, 843038653123272245248.00000000
0.14500000, 0.04500000, -645670974096645816320.00000000
0.15500000, 0.04500000, 425143929169113907200.00000000
0.16500000, 0.04500000, -194806611587237511168.00000000
0.17500000, 0.04500000, -28534822956389277696.00000000
0.18500000, 0.04500000, 230095679618094235648.00000000
0.19500000, 0.04500000, -400684615620326064128.00000000
0.20500000, 0.04500000, 539481134867639173120.00000000
0.21500000, 0.04500000, -654218580309030469632.00000000
0.22500000, 0.04500000, 760529222476879101952.00000000
0.23500000, 0.04500000, -878945568986495188992.00000000
0.24500000, 0.04500000, 1026889557904445145088.00000000
0.25500000, 0.04500000, -1206575862151986544640.00000000
0.26500000, 0.04500000, 1393104744715434590208.00000000
0.27500000, 0.04500000, -1532858428317955784704.00000000
0.28500000, 0.04500000, 1563079460024362205184.00000000
0.29500000, 0.04500000, -1448180295915948474368.00000000
0.30500000, 0.04500000, 1205748210893870596096.00000000
0.31500000, 0.04500000, -897902746378181935104.00000000
0.32500000, 0.04500000, 595262333271152525312.00000000
0.33500000, 0.04500000, -341977295016306278400.00000000
0.34500000, 0.04500000, 142138486170600603648.00000000
0.35500000, 0.04500000, 23341429640001290240.00000000
0.36500000, 0.04500000, -164523298484615512064.00000000
0.37500000, 0.04500000, 271205152324534337536.00000000
0.38500000, 0.04500000, -331209305235910819840.00000000
0.39500000, 0.04500000, 352096311981275086848.00000000
0.40500000, 0.04500000, -363030017688058200064.00000000
0.41500000, 0.04500000, 397538546853448253440.00000000
0.42500000, 0.04500000, -472610606487807524864.00000000
0.43500000, 0.04500000, 578525350200816173056.00000000
0.44500000, 0.04500000, -687495450381305511936.00000000
0.45500000, 0.04500000, 775625857740073861120.00000000
0.46500000, 0.04500000, -831001957433946931200.00000000
0.47500000, 0.04500000, 835895068662010740736.00000000
0.48500000, 0.04500000, -754265829831802880000.00000000
0.49500000, 0.04500000, 545168123958608068608.00000000
0.50500000, 0.04500000, -186975232287345737728.00000000
0.51500000, 0.04500000, -297467909131519655936.00000000
0.52500000, 0.04500000, 824679825893240078336.00000000
0.53500000, 0.04500000, -1268069420928780468224.00000000
0.54500000, 0.04500000, 1512284044991388188672.00000000
0.55500000, 0.04500000, -1510520551238322094080.00000000
0.56500000, 0.04500000, 1304498010156948783104.00000000
0.57500000, 0.04500000, -993315494024142389248.00000000
0.58500000, 0.04500000, 675115136031760449536.00000000
0.59500000, 0.04500000, -403687427683370008576.00000000
0.60500000, 0.04500000, 184277003404680200192.00000000
0.61500000, 0.04500000, 912690094986084352.00000000
0.62500000, 0.04500000, -163774179410225987584.00000000
0.63500000, 0.04500000, 297085521713247944704.00000000
0.64500000, 0.04500000, -380435097676160696320.00000000
0.65500000, 0.04500000, 397075300610328625152.00000000
0.66500000, 0.04500000, -349737071573475262464.00000000
0.67500000, 0.04500000, 265705925112932696064.00000000
0.68500000, 0.04500000, -187282674813021782016.00000000
0.69500000, 0.04500000, 151635089933359316992.00000000
0.70500000, 0.04500000, -167788955724229083136.00000000
0.71500000, 0.04500000, 213480998980216913920.00000000
0.72500000, 0.04500000, -247062649348369973248.00000000
0.73500000, 0.04500000, 206357282819793092608.00000000
0.74500000, 0.04500000, -27835242883704619008.00000000
0.75500000, 0.04500000, -317789075036098265088.00000000
0.76500000, 0.04500000, 817615415596975783936.00000000
0.77500000, 0.04500000, -1421364610546709561344.00000000
0.78500000, 0.04500000, 2059328296426617176064.00000000
0.79500000, 0.04500000, -2665011400961828585472.00000000
0.80500000, 0.04500000, 3171512247172972675072.00000000
0.81500000, 0.04500000, -3611343904985646628864.00000000
0.82500000, 0.04500000, 3845571416304515547136.00000000
0.83500000, 0.04500000, -4409075164725260582912.00000000
0.84500000, 0.04500000, 4681509221804157173760.00000000
0.85500000, 0.04500000, -4313053507221056389120.00000000
0.86500000, 0.04500000, 3440703797532445114368.00000000
0.87500000, 0.04500000, -2305857911836781838336.00000000
0.88500000, 0.04500000, 1615073208478643781632.00000000
0.89500000, 0.04500000, -1250575984752504602624.00000000
0.90500000, 0.04500000, 1197302072120051499008.00000000
0.91500000, 0.04500000, -1356194532522983424000.00000000
0.92500000, 0.04500000, 1751874796246593699840.00000000
0.93500000, 0.04500000, -2475521389459818938368.00000000
0.94500000, 0.04500000, 2142650615848626028544.00000000
0.95500000, 0.04500000, -3533799286872139104256.00000000
0.96500000, 0.04500000, 3130815792212055425024.00000000
0.97500000, 0.04500000, -2152812336682517921792.00000000
0.98500000, 0.04500000, 842646055324914810880.00000000
0.99500000, 0.04500000, 496695108194359115776.00000000
0.00500000, 0.05500000, 1774716700622656634880.00000000
0.01500000, 0.05500000, -2173675598473610657792.00000000
0.02500000, 0.05500000, 2362437188851219824640.00000000
0.03500000, 0.05500000, -2479088202288849223680.00000000
0.04500000, 0.05500000, 2570640525547372806144.00000000
0.05500000, 0.05500000, -2580347338165396176896.00000000
0.06500000, 0.05500000, 2452514777404185509888.00000000
0.07500000, 0.05500000, -2205375885503695683584.00000000
0.08500000, 0.05500000, 1899192939832696897536.00000000
0.09500000, 0.05500000, -1609190920900616650752.00000000
0.10500000, 0.05500000, 1379792830932009615360.00000000
0.11500000, 0.05500000, -1199999351713977335808.00000000
0.12500000, 0.05500000, 1028933457381792284672.00000000
0.13500000, 0.05500000, -832205422346115350528.00000000
0.14500000, 0.05500000, 603683094686516772864.00000000
0.15500000, 0.05500000, -358900743049902489600.00000000
0.16500000, 0.05500000, 119821199064160223232.00000000
0.17500000, 0.05500000, 95995440147832176640.00000000
0.18500000, 0.05500000, -279686782550889103360.00000000
0.19500000, 0.05500000, 431073323856774037504.00000000
0.20500000, 0.05500000, -556896343985032331264.00000000
0.21500000, 0.05500000, 670319824576461406208.00000000
0.22500000, 0.05500000, -791076138856591130624.00000000
0.23500000, 0.05500000, 941981565294060109824.00000000
0.24500000, 0.05500000, -1140306433977591267328.00000000
0.25500000, 0.05500000, 1384332916188013133824.00000000
0.26500000, 0.05500000, -1640728579142545833984.00000000
0.27500000, 0.05500000, 1846337743765395472384.00000000
0.28500000, 0.05500000, -1934326873330557386752.00000000
0.29500000, 0.05500000, 1872162677540444438528.00000000
0.30500000, 0.05500000, -1680169574732069601280.00000000
0.31500000, 0.05500000, 1413872111959304306688.00000000
0.32500000, 0.05500000, -1126934567985478500352.00000000