TITLE = "Linear advection equation"
VARIABLES = "x", "y", "sol"
ZONE STRANDID=1, SOLUTIONTIME=4.4, I=100, J=100, DATAPACKING=POINT
0.00500000, 0.00500000, -20853947341812866065791280523861355114489510889446592781357258594521633285480648167543130719710665754342641868275041043311239267435014099882833053588694853906088894187564151117327618229841382683538964348928.00000000
0.01500000, 0.00500000, 17946068403934728238729757666176843557686508696334651361239330352727493961664848574309907544496829755571569469845376027411131288075791320627654968820455640755097185654909940652589098980542367064187132182528.00000000
0.02500000, 0.00500000, -14911234416063002405354324912314550034506923353078910596202017933196200395510771467446890907997258106290576120093563897212721216621590298276197280464082966462031526971703803345693395909645861419798161784832.00000000
0.03500000, 0.00500000, 12222687137678821668739653748401933097561578152390528577086113305854045787734622286500282437858229682630683463784072492303930170929047957446789323846582311826200579270087575801129672660592347081852734930944.00000000
0.04500000, 0.00500000, -10262151370371125677266475326793067127918829556371290257844019884390913390714421884662306740197658781796556263882694949046495573563542636102025706932925096884714444433936047705069662876816436015096368463872.00000000
0.05500000, 0.00500000, 8838263648393546701974244846819125276313494684694086070655465107954012285478423554713630277596348669605790122254409862727973645583537314481594697333923564040157837323776128492111293952431751650477298679808.00000000
0.06500000, 0.00500000, -7404040399142824549153662317604297829799436464835319626164270645721261933715651028379299316317367602749653827978804690933469606635152701393608789251873437847511054780127412783832255103608722301687248715776.00000000
0.07500000, 0.00500000, 5901005919877056551355140577741621645235608143994377736776107704188012900792304634880100750862374218368157725064241315314785947648434176100040511180378985588949770822953430030138023924041615136128042532864.00000000
0.08500000, 0.00500000, -4544676296231436827036225567698925470165986726262483058408409835436239061812729453764179277077647064975504376814461791342951458245135961428630217668687756588640174227538460917331624463557775497746630836224.00000000
0.09500000, 0.00500000, 3511928558379157925848217440237724241598920807580384973984322773618128156021975752776124998453369667993966974873371771489823627107542834344011508370537232177649331873892068835663170586639674175592196997120.00000000
0.10500000, 0.00500000, -2810610366608054300812016552900878138921519775461837553654987429381594175430778442406039147538158365293776840125549025950427161875969299069043719210773838087910719980237015777767541391284790009484179144704.00000000
0.11500000, 0.00500000, 2328584698825560451350560604406912527443692951715227895401591168252366541142073495142450336032774707125059444284883459547942740223957561823756830253377677220733830546419780779110801102624517519335946715136.00000000
0.12500000, 0.00500000, -1971471787893249152974696100659987755695862509931834220877941076407607885326486492420379958053835206948565264163323935297710769299596465764396185648618929164015038955356123499654389262695230402574136901632.00000000
0.13500000, 0.00500000, 1704510121002495348303774067604831964192612086873211135027003732194888003923648292848726902367863996621761786146864531922486470299169922909464521268856683308874363315784051087164144045937884735084783730688.00000000
0.14500000, 0.00500000, -1510296247619706647241633958625028518708910748086516169654152117845838067443167088899826627941877953522896392141465254910668044614969901709279219358320551330221133112931924172384839219972988917015923130368.00000000
0.15500000, 0.00500000, 1347162427533920520327112820723947605723739009933515033204519556322912674026323961187462105672642127802655270255885778884379133091610119329198630156788493191037654205245925451709145817919144154423179083776.00000000
0.16500000, 0.00500000, -1184116932966094984741635991020151132957385515984647969316360732683169104588164081495937857758187837410588346021494568953683275837766141307493766044234731238932378268591005126589625088022834687473650499584.00000000
0.17500000, 0.00500000, 1020089637803998584228896902337114515141559446359805349483826301217046709537463859673066607446251147011104717170540078161273492533540330886590823062158885604410012034778187938925297961739463052297664200704.00000000
0.18500000, 0.00500000, -844115384627253175057599345729594143786393282884244427208544461523965896009461038599795077121874902335029170187939089390756280042344148793868076101565999643907796620153030984921298148039689128115636797440.00000000
0.19500000, 0.00500000, 643440380971450565315664644242564902057171884211711886303446182345899402515932528985152952319341633318188088550727229053164928877432462044637026347844647909266243235861445684672530578222467346347402985472.00000000
0.20500000, 0.00500000, -414635055616644250538851313190503621335608257430816369167837747494418963929548552681220766268589794090811628145494963105514669344758160659354109803613899962108898339437670753406748862743387601372092301312.00000000
0.21500000, 0.00500000, 160588533858904874701137005378792202165246269320061267449303497453594756108682802650767950770483968319454643750002485458685413060826418507997748523939230894867850547941149065632161719855909859978479927296.00000000
0.22500000, 0.00500000, 113160748220343116255306210721131935533193743287837189772247685981166080889065273104305895914865494646386724745930552479712762920700283647434799322869567537898063845145997983807060385359429837361847992320.00000000
0.23500000, 0.00500000, -407677123687450670406192120529794466449791343232739144654406117158107107949296407010384824178788287529987005620436717889967629583464515430204450622996873086784111714156787070077270578047356750594480013312.00000000
0.24500000, 0.00500000, 729854176434998903900102679699258389960786548440303382343023398781525475037325620623529840479519283701771262586535767268364613778435089382947408300372824374911100377763707157103795956099034954227672678400.00000000
0.25500000, 0.00500000, -1079343511834654689304305460145570204382378909636035765233861266804080695347573177988494984434137900581357828515873872875491407369960252834092137590562482510945506615784642192709290561805704368395351228416.00000000
0.26500000, 0.00500000, 1444136252414139104318333091474670799519783168491719330981185249048161697806754744442910585129179039211264903716326225130035427906047982238331526089871852461848862222503902998780784141152361121569897971712.00000000
0.27500000, 0.00500000, -1804384125647274759001202506480793133827761409992504584215373245435147695656671660947199298199715314328320053977055816266520589768017973489208359619649000474906629682486155194782991065230340986561754038272.00000000
0.28500000, 0.00500000, 2136872941163238446056138283367431445785124468242844109320251061251273422033543243418152230326832454145131471741750329180055033859916906056316470157439931774094249447652011411816318437996846868248876023808.00000000
0.29500000, 0.00500000, -2424271435103545247547386723554413998659089358743945587743825844803400126335877541979687391336053708464406343462591341209057422738351151444962374591043793057098878051595890986704488295847112864242495127552.00000000
0.30500000, 0.00500000, 2666978351729957186996350032471557302476746635345900003924607747207937111240189073954638097051011174217787041401760780967657696454725296600897480569402392870968851989766076943565900995380546756567151673344.00000000
0.31500000, 0.00500000, -2877569900890605052252728155187372842617856372406995193742693160580512513584689581740173975551943096700904294309165619698346484663349623032536533598472462877091698774157735390736452323606808483007842746368.00000000
0.32500000, 0.00500000, 3055362769046808298482192111940475893235579192015357410090595356001971097459586494482892579519732796624241542102233682714131312221622054934516676176334343790222082521302240090925935279140220230010184663040.00000000
0.33500000, 0.00500000, -3177916850546440551151515770025838620445513941293878705433706472454952830185253241728336619039838453153102147972860176506744658848978735667187483170297941999472853554696117587815922467635445859092478820352.00000000
0.34500000, 0.00500000, 3220501417560153484979106878918600015137853253956241893379267828485160911713405246794540637017233220741105347092013106727502815785687576316067056020302406424201888321308509610109093499332529746081809956864.00000000
0.35500000, 0.00500000, -3179039090157198140329126654073133824315145397883197943338855633598348764078076660866210395607113415066380726606676061598404461705487465382746947088372094892330532735832678541062428722366192182581725757440.00000000
0.36500000, 0.00500000, 3078366484547935355474083967722412436128739177983764658334998126421611259838456191604905603087882044481088293648114430354766276914669131228951011739248113927333604317274409151632211630182326165000184397824.00000000
0.37500000, 0.00500000, -2955123519999751987500167698118660193722894350336590688420565410567885084491796843109629708133717403661039349975180425418077084566860210507598279272037822932963940318497489406030879336573807209157230592000.00000000
0.38500000, 0.00500000, 2832975242986037787339752290617899810028950527937911732305048762614935853207187845236395996404698305832224024514305041037100198091588011794970872473980260511266687989247495407156988992884435628683713052672.00000000
0.39500000, 0.00500000, -2714917967236320061340454862671412180035245740084713473101088366084872571691732476535886046952232982198085903268978185072646659148394249270484690830146778312595723194471849530863398348588247628761792512000.00000000
0.40500000, 0.00500000, 2590236661460898651273323403783170716169420690963870192146320149139029424977761670039955071399688528418429437672820041106378062526502076066966596234296997003820294581196527642168932843642290163322867154944.00000000
0.41500000, 0.00500000, -2441626076887611786533578099657780480641510099259247250793378534658734119997261567628216900383892274653596223591292734089047960809065070396305147791653489445104476371508608362724937270893414355764647034880.00000000
0.42500000, 0.00500000, 2253188556646155830577672039886333221588898505655422578335100878537351984282243789522171101099393094827129481937600973751698282317688881240941396507133504609369837379987079872767123069164371421334213754880.00000000
0.43500000, 0.00500000, -2020323954279319473463815281405156273089064109305739574663553748448787721542547935349893313844719019839051794121298531051676782464209425829642832884618322148369853731808540710693463373895941827575867768832.00000000
0.44500000, 0.00500000, 1749106668217355002272921901209246585460409982490355200405147503627524166136846138419682532814468799755127370653855138122481727733189096655872637950042491270234906191934503696383951480897517672326039076864.00000000
0.45500000, 0.00500000, -1451460150633054513346626170250772662542348428966085201474152711118320966342861066471141596444701335023845386397867733266241047820803737002390388976514690868271660775190543790905047297020283658604346605568.00000000
0.46500000, 0.00500000, 1135907656834352055918288817138515623071727271454023268771406231213627725654410476814963521898143040455972440177394663861586737640795793918850145974053824078062577484555454070934866387449937658281872850944.00000000
0.47500000, 0.00500000, -808790198912695660775916123224131361986803653335947827347264645731379006992475927858190241929360155543261554516840367139187678333425688932533797066885955976666492370032721323986215545181550826580049133568.00000000
0.48500000, 0.00500000, 478009290232160594756648488755410409012961628324295312382273004618359371275008145811360446108763447406209100489899241305890354603252813534837461109038330841017922203815401842346662035792715754325481095168.00000000
0.49500000, 0.00500000, -152492191672690200096807749859995775519688855773660823012794832339422516942102759037476434066271820475661105553138571588642778872029332523887171392927218826034927692434807074768574798023998561258330652672.00000000
0.50500000, 0.00500000, -166105389966965268519576083827472479516482866609326366458371127133132988590972128237184287893925563034369886536371727198813228203829492694837815025776692187781758030065376703334740288955104277486383398912.00000000
0.51500000, 0.00500000, 483872959381786124205237487126896361020308539344164147146209331871872991776231398935221765161242832557076951779093465052535952861266569910995615671402681257637296726105284826826180997428037712097172258816.00000000
0.52500000, 0.00500000, -799501456100890469833234429866843926492311681393360730289455715745007912307129998671096195743913081473466960589618201241133626389772276988945470390244123418569836982172743038697956931990750035025086906368.00000000
0.53500000, 0.00500000, 1106308337512046703267486928930218575847762554169644579892266940471394088329209827797829799341956988643454048851508075944943416229795490073559457498824182008431241071044261139943366107154412293219757850624.00000000
0.54500000, 0.00500000, -1405618613720261833002341237349367224742881229367669090539293821616828396922796844093817953579118585791743581047403780196371887944847935948106692950789299400113662410286226647805777995481222634488540954624.00000000
0.55500000, 0.00500000, 1702737695978322247154352104175807948879554555403958588356624530944315840164903396204740074108616043272016476105843998195321803676088328957429078071816310959170379344223454716715882016961433648017583374336.00000000
0.56500000, 0.00500000, -2001519239470556389462491447721177372313389008510609222442233695143820233934320488094838266143360686925278085898801887844337489023703506241101164608187414200397103357173221201485854208403595952283440906240.00000000
0.57500000, 0.00500000, 2303800047815736396843261930087386090494619447804026280641253161687873588297857224457658516707976693250570766705649411084482684465529858944171708693939411495754938521346810673251846633557840949655394844672.00000000
0.58500000, 0.00500000, -2607473259281500710040507856342309892404733620518180766845529737441940220084439468074480735775089827212421067452303324095886651371330618649853066836588025467065429167817499919451290684984328222152012595200.00000000
0.59500000, 0.00500000, 2906618341604751746696155440876961842901875261718647658270828940965363007928732721662430982364735223336463475428761351233407082141465580200773095473037215761296481886422484443210708507586806676594003804160.00000000
0.60500000, 0.00500000, -3193695543194003486958865956759592458229282477074383309768314362370379371935346042491591389402189436334845688181484598105735925547130374953238126431322267239794016039483457097489725318175084858974563991552.00000000
0.61500000, 0.00500000, 3461462246419728229362759981461286522388410273422304037990212901398526911405222273418420719363082188201351087004310021417500068249708375174780042483375463491461414099281990673361275023098405059798331555840.00000000
0.62500000, 0.00500000, -3704936128306804598984375000407351516575218652784057021436023400063883778398253814437706711722359775496838277316061909797268318550276991806099653264820642547033982829021501328047352233195798538598637109248.00000000
0.63500000, 0.00500000, 3928827965891797212162769102768380715413607093812119485221772564649504631468900220634947470077034368180445090012581265250250550394649663055603836354232873684690554788661693036181934602258405148351071780864.00000000
0.64500000, 0.00500000, -4157083905145502368321991148562294656551613782166985810105751773607410916892915616165518317937988073939054794246305960574323843056970792194534370749125941820483407183798061750063220927318919129151609765888.00000000
0.65500000, 0.00500000, 4429547720449169833500931239725592405172321982719073656970689347308689243653936722892307441874176900108715582886851642740868994918685178424113283476043150100381051104022675892506276612574360605305245532160.00000000
0.66500000, 0.00500000, -4781439259918925540312842126987267355082788969840790206426991540539731043769558943634098245683470832299960271041880939024690685553916117294001735016492961008789457584891282731451831753893679111201569636352.00000000
0.67500000, 0.00500000, 5231160993139108654106263014974027465330190522884163273633268574190853925847424577990586645729606712085575368199234478476364237811878143999041008560301652230242627567815588357956010933601031618972618850304.00000000
0.68500000, 0.00500000, -5797849803933044022932674649352761166253607862873402770526160354144954775734994737453279246597997485622601417950770486471077652272740108691826227684994382202923833362131469449454687951475431656753043865600.00000000
0.69500000, 0.00500000, 6525903863285947633264956320854151413844318475154043606483820357157992653502991935440053360605520359184282367909784727893045332661643203720363181664362110858880058981487968060715021935853734890971760427008.00000000
0.70500000, 0.00500000, -7480517161478066203382704344306084091877220284924142290127451954611706523532390247703803412486314475877903664946476798984225907486044332253708277235601554704737872313440998945321512342532671309012933804032.00000000
0.71500000, 0.00500000, 8720422594731892426844436612073707470988310606236580329613963697081132297483077011660293476546198292829981138920813888958865170551286378183074564913675292677345263269820724679777313705281201640697648644096.00000000
0.72500000, 0.00500000, -10277375277078572852240518212927228940493572979311588818570057932389192808867864060628532863334260384768831396441970135356864802991712790901202432524684429006689663513740894652427843311372518359466241949696.00000000
0.73500000, 0.00500000, 12160894739949095171311768707959990761412452444885307252183756045742347515884281558323396978046174227257408923281538857935953401614969198372472838958358200308449034946942670726890326860449081675539556597760.00000000
0.74500000, 0.00500000, -14361525709466771748086026910295426764429924120647935610462326693567379509021058063031889648564155447696867501478873637148502401773603217684426284836536646879974321800294306019452872508103787876381819404288.00000000
0.75500000, 0.00500000, 16820148666692270492777963275099823329272468501876933147280072644783094353265887359744941235507239016455403787401420734288280785756288371740458475582974096969099518028515166146818809493399831150649864617984.00000000
0.76500000, 0.00500000, -19401469365335893785993895300570912995283659760863780199392169566784428724301648690903512087170215385163862557667261245600311814904567300838089436339063319383364868842303304801121861887570749964393855844352.00000000
0.77500000, 0.00500000, 18963398088607143088196714180400915978503818114066701638202901270984926692760909715497266593479445143792463100733787149999138137032018722647212328903310042005235588316600755781194376049870186958509014253568.00000000
0.78500000, 0.00500000, -21413923195790930486456580849703648616820941074819896429111184977003375279738980628524955325439465727759867654057680977499781860364728045323848055692491201729616378956754440343902536254973286219969038647296.00000000
0.79500000, 0.00500000, 26211161285638559250895196640958654078313143034497105551148192493242619939446870848640781968447831027306676021165432140667751508801273876156315968512743617048363316431576631487435961068915844090696751382528.00000000
0.80500000, 0.00500000, -18022710930067679863691622899637062803313256829956805823684590709119847882139253333672827143533224552981350750087455151386623134079934417640066333161299000073625906839522286817165677598752437538006606282752.00000000
0.81500000, 0.00500000, 30304311505225968066506130730024294679999715718940112574533765406452401413045215799761587018149983556638582703417408826179936297962212253099158149155842938387112300149643318905598769880427063209668095508480.00000000
0.82500000, 0.00500000, -29324576941277953380393001377956531281820651458335826758326531685700551629474858664314743726930095816896223189126243334387048631473255799196059039137930522420155932152199152755659711115500964943756590579712.00000000
0.83500000, 0.00500000, 32710805409844452922715619056852718495535745457131292765554591346954357089463384806360643783127447964007593870574669426387709690177915618779614725348724170089221218801263747501679062259338234920516964057088.00000000
0.84500000, 0.00500000, -38636101600802791921962627027029154767520364719863982584075533036496849636379443855402088554726532387999671410639079503694441440581987526784662408699914778431607119784172807949837494323925021895536341417984.00000000
0.85500000, 0.00500000, 39118097868141429975629813812139728143439235841545085241310994423763774370016758325602930392569067217997296879269091772377974255178448205779204565602153223713132409030879735068904782443025864685872931143680.00000000
0.86500000, 0.00500000, -41421476030915426050838965087885475078759812483687223044409795597979024697761485443474154237995232854537960354784414471807612435240079967664659930068198224514684617878179829224851400142733210853943770349568.00000000
0.87500000, 0.00500000, 38248519367442621124855749229764732256887294693596536987726380008734850201137229426202855219725245378568713446685886402650947965930294737185837981511958585701197462476875697591739301157590114561066778230784.00000000
0.88500000, 0.00500000, -39506886656531367551402859739679642018011507215545894452104046696374635766906051848637343138200179943301694678432205053795898534970097143562958229822971991880761272434441114835741123363941423138822495928320.00000000
0.89500000, 0.00500000, 45953033517398239626769866393664313855328216279839044842656080837956469567671841282533675821179053656341400780044671490847350471119836190879668679906433123988445991686891778339160038486617004878255097905152.00000000
0.90500000, 0.00500000, -45965817603112067980742976882620604127166506450018021873633550872674465195768962475475017809940486069302309514026254272635224428823586371914456323776303809892914622356564369499133119965966345861102238171136.00000000
0.91500000, 0.00500000, 39870759893867453874813155464675666460011679753951400266181103859035151939716116174326433340832944373966177022584196883403052654633918751000275799708527537244327392347058130947102296701829678175073995849728.00000000
0.92500000, 0.00500000, -38308091051716536299853897030788659580819186795285509125766462378734542693858372638265248651007430153972015938675685918553488202194125572361703933809737134926111025945893863020686778848818201218108482387968.00000000
0.93500000, 0.00500000, 41361566858688032631871382120776786664596726925386083964015152212224841086555006209078050639862732735424480341943978266258415511627789598648069229619485065895440444482891625844961705051344813062165966618624.00000000
0.94500000, 0.00500000, -38764658228581538980049613504927141932809530346407752831429859137717723996930166936924296932630668432806668801013500149055011044937623948975842391605583075438563053952756220030461749516760621845950886838272.00000000
0.95500000, 0.00500000, 35705352336672534710468116982532568557277380342648631623861391341896754148551545185364372327738931315131575879383589171980884046703795504609540459099367487198476336382696779204725200400832894958726421676032.00000000
0.96500000, 0.00500000, -32233490520302821159761299552817039521049376607778271769883065503935301226651599424680795454174707192635678653742619110612534239228832309656800629716255207142356295369239977624395753337295527846917311561728.00000000
0.97500000, 0.00500000, 25582411994956964979067895949243357618269309680740706225597974976023572980728686514199973391518411274168737467633727124894943890958967822793354168237616104971160210090314516624387294256557677381078698950656.00000000
0.98500000, 0.00500000, -22739463627485430962856669938947685445673118355798770395438344519609682454385845156134764412102155295354222623636041749395642018481006914668814246532631010817643722065083603736851149523597206453446779076608.00000000
0.99500000, 0.00500000, 23481014935264446116551988616195082623195792586739252382533280123817548394484538379827238647927675890307518976593994823090899694983271165978122399735459808090522992336152972089858792607221845367803116257280.00000000
0.00500000, 0.01500000, 21089494534374645092734954771634406699058159797792603252536910681280637333950127210025524946929317668936075705860470782854945584503630807387126679279118672710372691734803124296649176496687260356492000231424.00000000
0.01500000, 0.01500000, -18114443255427786124038125349494797016908816980740071089720614362660492005433505710609550953715679454183345535621122243645425677399419557221551185985841214813428142715636623536564363615600619471892423639040.00000000
0.02500000, 0.01500000, 14809738970446629425775995576293273365898603018063446750877077379681541850914677609069342666272188491188273420404103164654203440378758726320299494002322617200218831598979657476995965344905713252228642373632.00000000
0.03500000, 0.01500000, -12086183534290522349505915838423473923638516749707258113644531234239450081127097362977734489207079431598403071886502211824721090212804887785424104876477872525828504703777975662984308408029758920730978811904.00000000
0.04500000, 0.01500000, 10303309442041184922500405707377785988599217366804741758925249864861409503585387646574385655821955608618288029998470334587534068126840362709797620001795676138755977192779014535651301634127039082993765318656.00000000
0.05500000, 0.01500000, -8782395792322924322181534681126142206677864638486226000671734887113040397477476028618965747774070674851588452134818742622096862058994085273205829332524297036285685000013266716724360370724421928951287382016.00000000
0.06500000, 0.01500000, 7198979096802536425723819451825616476064247799542905645836548528597206112579993703218239338702240481393781349500112700414523571259249243156330481682167712624770486294175735685713022268282686205702130630656.00000000
0.07500000, 0.01500000, -5663291676398527977823164756153663883651945075401834812277823122326053336443543859759163650810735668236451206219951705185984025103239834894236027409678793607687545667744398073736522586317442660755321126912.00000000
0.08500000, 0.01500000, 4343836483365963279193074187272611258975893090521824197192691753482119719018932203814219280370026418211886634070623970747521641505188813272146377531270969089646484340487889401087093206732831933334040870912.00000000
0.09500000, 0.01500000, -3352125747384648033265404102557505280155358713288901464869316002565835059875011500292866614056133627532531322538333993810683853670035761200545526001875469030429639300104193335991966516519135796195250667520.00000000
0.10500000, 0.01500000, 2644200661909436105355519943911630629346499761037136631521651549942416503984366958011640874862470745138641123053937759712094015077274987550861045881705988382307072018966404520732175594694775041654266003456.00000000
0.11500000, 0.01500000, -2114631302817232646046459389578878551577056906158000811475374920303171737178747722037822664187938351549628285389272931362356803414777098715184343506349241337395085982183436529129879240062696033577200517120.00000000
0.12500000, 0.01500000, 1706406943612532117634266166866261733978224308810789930277813898277572789659609939595310173207111601808515855822635376870743035016771386118330126203761241094726379752443124549687280945023386150902704373760.00000000
0.13500000, 0.01500000, -1420866822255660088435879719860062703108672472908031955670954080257247993992465254711693136200680351210672524017983992542818757620771284581469283369597886943425634195972579014902273451241520859104638140416.00000000
0.14500000, 0.01500000, 1225397672461153731026083563641606235043585637686755964414966532994947446275137966978124726353671281852867332302996216830474217694964312129284140673271278417880619392572875328634018293112480767313639899136.00000000
0.15500000, 0.01500000, -1053751448253828943514039706629471180978174145934271292119664772341532891795710257400566868285709598485336562088955306060896394182483382192701364588130324945647160778024495004727072012603897139104535543808.00000000
0.16500000, 0.01500000, 880720080508201835768589472439041237917610339527568582731656214575625577256736643077417942037322984778062992538064297685102187747344907818851932500544156682657113345675495705285192986602226907613216374784.00000000
0.17500000, 0.01500000, -695119975954687678054494388723083035873934678205081333814155740938557871270824277667139101709270612850053922908672210520112530840457361803339550317194311266146425452805845211381902929217577124148314898432.00000000
0.18500000, 0.01500000, 485348879041899797998317315120559072677729619079923273648688089443902300873689196547046484777249236971564248132767473219425302553816206571484620829573102907845359183210091028841085053878367755952803807232.00000000
0.19500000, 0.01500000, -253136926720831707177716607205918088385042056645183367533991515858095155408178383219453325908970597014440186845623664067218548179957781280101045383240836492624884405660282035986115019636158238264521654272.00000000
0.20500000, 0.01500000, 4293399731422436128134173251807346142140540866944950073928373255090389449955480370322197060484468333209316907228400130609202301740654819027249075791133951613038394335719787939261490153620525948428353536.00000000
0.21500000, 0.01500000, 259327461790793418232778521916649631785670662172818735666876568638381230058264940202476990081809419643993359973639229783075068370910030824288583489279885531640049481162275928479493094194329350016201654272.00000000
0.22500000, 0.01500000, -544377962881195116613332480921126011520757839592713876762807929089620800499409315903911264671538093967142857245627134163807390774942257537589498674341063906342067863774255008097995493103233820859668889600.00000000
0.23500000, 0.01500000, 862789406244156532558207858132669945609491114710697832524432835547728667811914279613417081794798550905640198366877342355328296393711949158366277485300262685242601442917183997464446424846294897195592187904.00000000