TITLE = "Linear advection equation"
VARIABLES = "x", "y", "sol"
ZONE STRANDID=1, SOLUTIONTIME=5.3, I=100, J=100, DATAPACKING=POINT
0.00500000, 0.00500000, -11269604564890670629339771048843704225301940782902031680187151044071804272196982195208089405817717816220551233401512380514465567450592599577489854651018811656611956275292396248724691543778338682829594700076981117265687240784021802855542435891642368.00000000
0.01500000, 0.00500000, 11071323581454226759741253778014561981375883654609291400141702929102181764207484422823074709103681832650357891828908200511429780424401738685265463846778171939868367078329646698501637985556140271212055991464200359045689573881692766026662954057859072.00000000
0.02500000, 0.00500000, -9237739409950467192135273805651016717051978690321683054247108729969003666353071957715091238535374376984104293274116610764276393072983538589441096521827504493312901088361942637725533047782934406174964742951046217954974203685402246662581573742755840.00000000
0.03500000, 0.00500000, 9907270313841282261803390575601695226613935916124583943240158689978549605424342244186425929785658293889748366976164397321907184708187606568648088542310924312258593597648953776064058567334305469417274144201630146373403975561677262922450341659148288.00000000
0.04500000, 0.00500000, -9411736995768147014452877406297795889037904767703031178117365746328813598752819330963578583875188674853403697424401172355704293186437231347219723201387276058183979477447779351264472573565975878627887822483861701531153169001255082477239906433236992.00000000
0.05500000, 0.00500000, 9182135794743091560519609032806612477893311526114745916352614008450996176961815524411871117670902313485604244072034044749836941381248435878815892259826463971277993069666304263002038308917359470217786665414613870886342853285157396047406357656109056.00000000
0.06500000, 0.00500000, -8852895065686432910588755986079173940683404044555420785346902352621534137542949381997444595806753530010570129465516023395177440303622759727981158999001280043728364208726596726469166484283866671816781703361817755564041769755886759612651758388510720.00000000
0.07500000, 0.00500000, 8008167361103302678713305158512974916185437593016548440202148314474612432056650048873842061373108838089187900976716052070868894131938753760526634694754037166696451333356860296928684759391802431516452776568457148372070685023651650719468749823410176.00000000
0.08500000, 0.00500000, -6830537318016259073665361246796614083113264394482059403016480598478886761712103150876596793260090363322249094660429876400572445464870260792667890769351735200712680512758162155444399972991956513758885685047328628284018525056945085393591331809394688.00000000
0.09500000, 0.00500000, 5652136056642682909898123822258870448140197945710647247745535365665705878520100472538530322223272304877626032235717896396073018065545412673219519611140444250546169053870926835580138633731380232689971224339715789740435280189075759753698256267247616.00000000
0.10500000, 0.00500000, -4560113524605445939694844896637631838844881757400433870046720292707088744114479993377973316080356869331177426931248286107289250559628519076706145468992374433831238992203738795949793419802187985683569330395458044479999897108729528324156648947974144.00000000
0.11500000, 0.00500000, 3559192672216921202588308590207464116481823659915524230948177134038187750673059265547675173295366536436322922006608621084769239664759760403969122017526087667326258562320919587252214922356026877394312627667196010866074342812556171570583847900807168.00000000
0.12500000, 0.00500000, -2718743667095111011842271509431412055962692225358441387351723001404808439252320118724880819817144325299773711968772476512375292002269674874165944957644322431878420748818859516525286215836955227012222389593989771916085976484273506189145878315401216.00000000
0.13500000, 0.00500000, 2036112265736541016514300043649849951762568433777481436869018828191456751611571398280576157002599175957039819710125173462833985584753760976094216640083101902701061035380496711465236387805277322326265516258468667899750411703887099375219908536172544.00000000
0.14500000, 0.00500000, -1433571151609146976319557130443342089282269839166307081601283898006556585683730241577768669877854971655733231315991597019663145194525322151608325334041769101812829803142658951087718742603386701828739596917510528532410466393850818938263132159606784.00000000
0.15500000, 0.00500000, 832542400776566926393407341401011906251818537404021967471721004603348218916041266051654457878646776557713506830348015560254007354437189058462263248645006962773176215163498863268608313066393995464227267324470354717428047737885417626056705120927744.00000000
0.16500000, 0.00500000, -473464135709779189749493112916054332394063171772668368280352837899145274566237136749876009314258872284478919662763145970830658069466200704204918217202869530671331157149267700249017669150592634216606218908801555569818743257139055621351306751377408.00000000
0.17500000, 0.00500000, 235400983672042813728094854270307564958150079795836963282015050548688216903035203359394672194192926794036677470922862541638200884164914621671115167926478122368628058094650932403690203582195066857604549705519442738264138388813793488261878294511616.00000000
0.18500000, 0.00500000, -255370421764190489190145784944620192690233592512591953730851785402779088481356074098014867734452161889523727619842888439105120284574748849543208273038408349227732123437671391702257190182394237330179451809426883593758504065071402813771440470360064.00000000
0.19500000, 0.00500000, 614026110335651650805318171397630067723923017783353957650966105789169020117198533332175331858607723825906869412162610955269238725051981734781568239280334081255269497647545695160407834072350044554816907184847691544638987227160493052563354973896704.00000000
0.20500000, 0.00500000, -1438880908507055557647912181500224844028590426838289526283074917308824278201192982768130505697110407971064446293811320093485394324804399543537714392121079384617457832570415544329358809756492041217625069024805011279426793166980852831516634038403072.00000000
0.21500000, 0.00500000, 2899424866767071536544981177468400052682028586388829579936085405187255925137210317013611210439401706271139831188218117624380670466854659763287639315806158242633962303678212716747014217841974815711160240755946448166692470826319941618869830112247808.00000000
0.22500000, 0.00500000, -5333814104453382473697018204641550509676189652485029957824493897705429376950659880358307832853153353964952047084415536550718526291852404568103482026591269004432227865719645295871745945373176062984395374968682707730508544215410229648610544261791744.00000000
0.23500000, 0.00500000, 9094294800067572179381797959677602102279140807159659594255406539387721820021368907372191426554104905425369531890740341409564417366742887964183400344223849969263840457016717977582254514332472682136256742830681752344758995479163129628342962681282560.00000000
0.24500000, 0.00500000, -14497491079924489350115915262715356150408679990363118702709817712950866352351253053076349612546314385600006523817023952104845100751218078995454271088101474391527344737522504671155285343391774638630917561871069863826002300730646463223751986353537024.00000000
0.25500000, 0.00500000, 21841563863290898430335729102668792485145925799131016219273088460944748955594198090079714841986821892763948761661550247793600532480936022607933826505913366616751273915648079221349617544048885423674325000500213345606654064554067788040435173926371328.00000000
0.26500000, 0.00500000, -31456976619439194866454377726282300364821583140169713020369928472136494137606197935458610723114647529032248331107131498889331002557872789844307042634505598055064089962734097037762685062219077552306694441883324051281138075023226934585367049101377536.00000000
0.27500000, 0.00500000, 38333799791396162878108292837135704716617469050929703959505269586028305374124309564059639017974608964092830690541208162029959555086981195980373617153548637033308998354147564786870705137923843184368559998215162002082104891929573323385763249933778944.00000000
0.28500000, 0.00500000, -55547756893038199621479497176116711553175905774686533307651570009132223878572055222239700585664434945268521206777517541735915873890247375444258805861379118141939826596585957426011220769751154500089850977323733957675626860609232293684742486132523008.00000000
0.29500000, 0.00500000, 75051786511293615865893994012422370577111674416313398783269810573892314261047918450081334166197401910889111190913792053189217265345126586758557706024413234865073781775000077666113857374304406335027562873801994330639278148289183479580379374273167360.00000000
0.30500000, 0.00500000, -83592241339182788309701427642580654272448515933412012135115854146425700961174714895933127072576223665864811076542326884513910847285542035581140589234165111847524228709650085396084843844488288238502184573592061854726324661412323734056881958581960704.00000000
0.31500000, 0.00500000, 123490968189816612141140110478227317298566978581198989441770867394275954017277646402872063077835354113439728850972671846451771054878096138122129594331679647663202637243385229465912304271615027893120294430927327963675990134891735394106740055841177600.00000000
0.32500000, 0.00500000, -159084466090085715030951074444687929387477446193032424389464724561285735945870970195023655738460610099698265106249811721013332815463809306829421763272190832278894876776386868314730116630346282426174511211094917396590743571189539307267650256306700288.00000000
0.33500000, 0.00500000, 200167498917994880917734314015204996150127250494104736235993201308959581661199133182886516045639534764208128446768635521427984270808157804546725384299014810033925633213507442455970648296072556291762091286587132665671860811064845457137520429544505344.00000000
0.34500000, 0.00500000, -245122899215121095780030149234214811050896433236498525290551657115725050135153394356945072342902056004132244208052282473450687941338559897451911470383200062755315282222411624683040244380873459460653039178421168935287904637001267438079701319434633216.00000000
0.35500000, 0.00500000, 292723576865843764545728892994676163758796287012221394932742450084204105162568287940887249442756828905035276907592556304799705666592429955518479204999640309871363143068603936858659463223008805082158594434690058927198135256488592554224519785966731264.00000000
0.36500000, 0.00500000, -342047640267749655045371199768191786507916811622386713139366990400819870596021918758790245140239541798444165191267680671639330606019484736048564447803791915772912451320567349101556330524317938909098559266116127295146858258070871803503651260502900736.00000000
0.37500000, 0.00500000, 401241395538234971340811902870075787937718477863867714379245576707984740978060927709093236456561638706010602024398830682354123663455852492094151222231234787916229236960051345184498445887247778172573691127136437975013089897409536990910172990304944128.00000000
0.38500000, 0.00500000, -477824488268402751212467434355532871640174021209757064391899875235240098965817808376450100985686024439273491287877224458380250274592734312891950529231478726401511141469393472176230799874445229383225059174630581427238845509513719652508225864931999744.00000000
0.39500000, 0.00500000, 564125863682093019013620856121911029299282623919627669326492703189074218095406533646548933580831182313871019033947599039272839310061523504002064514969865512985515420060396934747759700276908874565002685108225853193315702296346472900809124850339676160.00000000
0.40500000, 0.00500000, -653291934670627811082636245224835948165333832689299993934866868636198283255634690992907305080456349987310870200966348430766024675114203996672774034531673252267911455409381097475894644403706340623679972798586763239313010175753635974271293775016886272.00000000
0.41500000, 0.00500000, 719230373533064692931770084909837800246790916180021804815176199336159458863839906216420696157418812311548356156915912711026592306850030326272195560505665052912772300486184724927048945715227776159426165265050567247120317864256989517548164685857030144.00000000
0.42500000, 0.00500000, -857514029620329728894314184106971790302402600823613258267708061932987366832245534304187393820076545386004274879542007971718248571398883488511519046996089328923240426606876616747036423403768056806910727517274963350657512191185290515134924076703809536.00000000
0.43500000, 0.00500000, 959317512140766025572798585351034290958540245053618036563382396339910072639129844409321735983022654282777559021681969310121136471050732190842080890498865459763489484509871813779852809040434059304384678163305321460133635948424120236825169203610779648.00000000
0.44500000, 0.00500000, -1038927481266548419959856302093529802585295466270451272578311360943640858374760460929329425275856480193917546965214364102588204708558179514971811512178235129046479083659265339751717262872920446465148548554389681021899515469906508836183568886605545472.00000000
0.45500000, 0.00500000, 1092806176090818509213034471069899039165976060628037638348848457987088660766734624266341209909318536043844997492337124189815863087463756124592854256514611880665444384869483349624359090352027028374804182437750992679322100618219315264715303149270728704.00000000
0.46500000, 0.00500000, -1131595507630467634515486244086549166921906711453877313009180790948972752976838999741033951684494494708927566339774308269273356490057846626931169257767321446503617544268648295884143172357628496986870694893473651183308642999120982974553820673341390848.00000000
0.47500000, 0.00500000, 1167113653347788620700850684472991216241754543650841288777120922700261994634428556558313276891624463296993126437133105361386088980589040388229038919057373987688352021370978886410559967759858337521738827504575262864418484206804698579380343775590088704.00000000
0.48500000, 0.00500000, -1202689470882287031598017706662400699468064039175026401666525993615632316514653285155701241342217548013359541512751018145297132161314438044229842667198404910757518853158409712466354109940808905413399862673870536157762147477396405484017450513323786240.00000000
0.49500000, 0.00500000, 1230192521461021070526343697085919739750602499051984216278522853924369698525782412625546355661380529532846345742766627071111781101788983279431316404287396559351354456269596517784316560275109945457722404665425723497271462409988068243890492936005091328.00000000
0.50500000, 0.00500000, -1237435262174214257491111395420436374892374636771033525217409002526358752597587076253709721392318055376945964630671327321996710824838292714291617899485969188309420853485845461111018271957368015867112721675555531070512080137272762842804725944254726144.00000000
0.51500000, 0.00500000, 1230062934883204746293872500454387169822349750415927379642441583371910402039158476017160615713477708539416039251918084209166840325419870190363013795282240288045166476624932880590660411664884422209617558781606085905900355731361107508605115925975269376.00000000
0.52500000, 0.00500000, -1228242382816567949797665132464267901633183288723746910660894868977545992058488484260631189111448562530456348432438792329883274050583710396532218845665668288566672550916621998468690827023230752859634042287919504256995325906424496243320750321491247104.00000000
0.53500000, 0.00500000, 1228265928597268985493627832288710391211105893323358621004310114863305951871149488940168407098953455124712025218122408001957253412119787186530386558611513945761544120378404444272370629276883002056843748923671530710854030971655414258455657138630950912.00000000
0.54500000, 0.00500000, -1207118038534157212264439684179294904359559748790225169718618959305746806515482453887063199196999243989746720866756861075843924776753557803888402368940423418942449299129124249087090379729800023110184743082836999428346644561387165283803713440535543808.00000000
0.55500000, 0.00500000, 1161683309626237766875393820302501726867323394753178691994855081898416319337791131413275488742040672567741986608692155472178556955061376253039855517034390817868178015167553428555896819992372869973846100889895768679821379917690084202081573159120666624.00000000
0.56500000, 0.00500000, -1104072200452672630145579517985292473040902206682791617093850227903997256068704188826431855584867427202337287473570625864724694188140622579774305910022913787448754574591164444706839160662265044801328937017070023193017370786905413897128278309421973504.00000000
0.57500000, 0.00500000, 1039115884432965937958027640180888821265483772650990902209402167988931828736579369452178538659942753992632164847549094660397223013541342647525931924712263748246828697036201214446852436811693514778573338126461623454792978825542860499653158276025024512.00000000
0.58500000, 0.00500000, -965683533515721601699180203667179509846910729221718219880209667090724701830390320383640024874783117525937348075425927197016508403784617298229221702524406570404439924247086413677395000603335974529198892851134777685923752182655656612200114086156959744.00000000
0.59500000, 0.00500000, 884316293074310218031461147056914928718285316702045386852110596671252640864724674094942776591669961197749146945618803152746175823896693534283219722119643880685807544974386724256612859188505149032497495385448920968596043640871729423153568565396766720.00000000
0.60500000, 0.00500000, -797496520766641368077220376076477495896223552823666117593178831846146034779414605190808926423158641140919989380940540367618730942090579497644160304658503278375507833325439146245502418316926819764711159435808896754749497986957220118905635931508703232.00000000
0.61500000, 0.00500000, 707100283795315491848877507192478421372622519941008465778330453545277713045683580705480316305368143324611179166019391543397871544926595448854823546724910527504366420572998717250186578723295986883932555017469143580128983451142118347795326168461213696.00000000
0.62500000, 0.00500000, -613889366513190804348052569275471707646675705307326311160234130155584562809756722243856275615583216845431102664268627055790862186008450651806028310570525465503583318195316743367408292947009827524781949077547802775350202875809966970115706626963931136.00000000
0.63500000, 0.00500000, 519907442426127442381424214376398265139030706645639079580648716754735477034593552359464753626133723652826182768625804139178236201329278533000759484304369487373404751316054179373135303694794273163634194911659019421066848577057511599857685195831377920.00000000
0.64500000, 0.00500000, -429500536485317133926182040399773171052477242406439770054084429149348805883781817221420365144737591252454479566197717757013017132329983758047409246136849327617065686892947695823435567862669173162032295988421311404934178903214360522309710247123484672.00000000
0.65500000, 0.00500000, 346375697786711601054649184418305066178967941935862892896999668045523397484044436198981368131881049808412345193830321297768872414120970622412586631965061555240293431454580255071941755405640169569232240764991435583413267947330127548540659836494282752.00000000
0.66500000, 0.00500000, -272133824692385618299163271713410067556658830064281860089537414266798845622704137645104033631905300909963051950447706485862827175847196032476205483305418376227166140672328707446067688210905532559119719384843990520206889090980419135339121603468328960.00000000
0.67500000, 0.00500000, 209372264977334816587450313710444213373359462137908787559712516716894925522100538475020984998648559860024659227650563889000537184640496585372581012042251393442064946926023184567811762130021906563848921039197115745856091272785012570922631615607734272.00000000
0.68500000, 0.00500000, -158734212094978071263814598230982888714781079627594018409632696755252646201892294043518549438137627728694058392717936972567432084929068847126358164339863040541999699404273330329103241480691216153595286989343097056041009145812997409482047119991767040.00000000
0.69500000, 0.00500000, 114816250687958142453591075959362972098368859486014934567157238871538180285159255455799717455363424584246199876978326337266115877986651791646588358707038226341016606804120524989993424447407652390610246384559525695422994366261215282056744258827714560.00000000
0.70500000, 0.00500000, -73440192780069901647136686183049578961864936176645380938753970294182763595718297679514214540043023540949326307472451580889719822185521258231465770050331184236684325031668389133295402033654000827768503135030287855277457859499687804067155182262157312.00000000
0.71500000, 0.00500000, 35845492265855724814149673052740817829106549883138069956437678161301420436149379124313551332925250934148448017132437563183134746654726000544278705146300957309426216807541168350820034437289252769469329201585317765054247637645205825828047578197917696.00000000
0.72500000, 0.00500000, -3848977047856366256539664069026041136219582663525799578675265971106498873427761545488210796715874225945979183666226789327441927118826837632331640386956359071264447926808849880466427606736015384407025305361230572625967380460848909899551409893801984.00000000
0.73500000, 0.00500000, -22018652368834635942919128668818747555972434591231724683943285410859797781615475845083986205215550818545952955783602612937494068286514291901569447833680854131746821809943195700132361421740531499288612147638421931396869141443247740678555568210706432.00000000
0.74500000, 0.00500000, 40044948537773614556589635803070350280686667861794998632524344827186482578642818008640514057454940826367954892077102758706364027653750624949535189423526250774739324419690024907780371305700135528454883312152169545909277539577478893164248885859713024.00000000
0.75500000, 0.00500000, -52732253590117768472778765332754504268873965944313371310166962582387432630788001284111919294211158217298234421442032576687785021594219028070399878771825584366325843172012563631262954627629309165404870939020569651573832260429878747910798257787240448.00000000
0.76500000, 0.00500000, 64155965239591816084318697758926517585500095026069893665306238222774769831531511288357887521732367595439818952503570793692827689427417494433121421271936549309537495797548822479503757842891428489865741947838936552162904569133221334242887547924512768.00000000
0.77500000, 0.00500000, -71026377847824719917495345140966650060859114687178523738916911070551918901250817214591800957698479377060142405306892349202603421642070640086681013788738811226798127441696964124148773972804380958998566055908929031328222063939887994352151427618439168.00000000
0.78500000, 0.00500000, 73698528083678893539608239620115544760812144719081539553300581957028148583096738841466633449121238678457860633318944052875166908351949963093671663727952920182867076677522180634112670502560506696818805000816848894770038894481560984682249947497627648.00000000
0.79500000, 0.00500000, -75447863384341521911935000135305831681524993145586578412935279200056680547185653616351244942878622327213854221830638447344373326561877659918610594165103059066673976768993557258104169067968750619987888213782544085230765762418851613110779595089510400.00000000
0.80500000, 0.00500000, 74449143387162964115439511176617958240581021339627467946041942345833991310061507772354990715873214043878787384705615764191913468174047614927728292151770285576100325289316847178490823126099447024117480290442325880756209801434889594494657432511315968.00000000
0.81500000, 0.00500000, -69531660989166687146116764184402796917863940636425159177675907984019313946249312080912466165186099943188296939747100979829245801768670681943457822746539807257164317153917416755670396066990059162424273601424328929461352718632947151404606464563609600.00000000
0.82500000, 0.00500000, 42668369732361400644596831033556562238641466814240845165217271806822925662145512408538214965546792761334928271114377056655817271657632521898106738906838839299281067265134279006616957149146767191898248115028947139881131393103791777822755486034821120.00000000
0.83500000, 0.00500000, -55540762105895834337040382946003530515252552334304183389801482450282200248608074116222326567471127750234097003640361131860567076442702902518824550202063230515273897072674708045287613083226764641677006867747391459624897910190910835270612279543988224.00000000
0.84500000, 0.00500000, 49480136882540394895170608547171765508031469100577019453943053021017388127216766056776242104741316808130808043987412799102049015924568689726400381788639702553916816481132077005106944827322522341946142444444002863023570990543050700662072174895431680.00000000
0.85500000, 0.00500000, -44350162353533138963185556793448786153777852819264612960159225683858274349142851850140167807695169140954309615906928235099403530149965492358180598687206381348106172662439064546101028120790683535525368590216302174206209897510611616991992004789403648.00000000
0.86500000, 0.00500000, 39246237473125378822034897936536566060423369417159244410400283719445977537234909496269637994717984957672433712100025359039642527679924170292304772805637808496724121170975252511235472799450610730398654437657805240872381232678981728557604273823678464.00000000
0.87500000, 0.00500000, -23224912403307912359651572774752697137109230871778961520660015020885343738324379019515548025043335925164064848630645624015191833663223898460269229285665973094497592213421607348651928586967516700910221850635172802723643029671396297623932177141989376.00000000
0.88500000, 0.00500000, 23869772414928773062041213582127452631325497772453129492299126025124465735228942492374717169156875671249892594670254131143999939527609826134402438113892915115255343599130774879855889266488070591717940410388286849705198466267781403138876060609806336.00000000
0.89500000, 0.00500000, -21745652402238111796280473833988942900361315691006843755046703093744998160151286269266944391759365379158461226499738397060824978068468771145079605831319597816186807279784361118237745528948135953005565719540246362695503309389146084017953447268581376.00000000
0.90500000, 0.00500000, 16036337447924604637846343945699180691814247332726682789690224261761354104948909217878532744212451866721334245239376987519392601294210312735869603901665150520622555162497197072137008772408628874818141056249007665025385192856055452142894408164966400.00000000
0.91500000, 0.00500000, -10682091324318108987419756656314169950416512669701321293133099499268168575576758827165882130107118834898151214840952947341832777472260917858411997148143260544943332969242742620814144597269795325364820252700210907636313565574293372590140110122516480.00000000
0.92500000, 0.00500000, 5775171896456074930302448300188791624342498908728252954210460629823031639317331953285110039824506702784582055729522726900143939962640641935845536309583182983735090338467524252761219659673449143161655205201195261958197115108260402128235842076934144.00000000
0.93500000, 0.00500000, -1570401233020136577206088221964199873339583490429973172016256144609351099507715140366185996663955623179007153045502143958983002142427238239015176947479894176823680130228392920315525439018962069873085285856641967577397935590045130985427543447830528.00000000
0.94500000, 0.00500000, -1852984348756841890874498170860393023631753970689093437459234922253874331143558149911779241203666701292915088271787330958388698541361492267787769911226912065385591110627628722594392482671434746034310872960025900158500152957936318293847173249368064.00000000
0.95500000, 0.00500000, 4614649522854464916661762306487443315727475066775085098009896536194278408256760163269073362516519861340865131783827111437180563026958686282898375887841917001764622109787616949779679869406497691797989660545239948868400785819169669320570561254916096.00000000
0.96500000, 0.00500000, -6791574474145790323102383296173215842310566153352522609464619733059095396959723753332014442988076208441411345978214276287285406783415940296434847229135480380161179286084505061544331882436049752268302336118848453599762813880679557268133556726530048.00000000
0.97500000, 0.00500000, 8115525781452806751981306373997188986629014032282486965728492175828612321194744004056525976117282431813888032089179365564523769600102813995604047901610073072288808921297572269407773555511577285066141091731152744983021828517656148859851176973172736.00000000
0.98500000, 0.00500000, -9477722143882441107729495617674917280588236931451249978801376786315557638947883466399883081690299110891261948615884795013750819399167021979918771256455193303884101619760866026048201605160696453671764455012008767582193766794908854447316876115574784.00000000
0.99500000, 0.00500000, 10866401782716756181627354722768448940944872734742437441361376861756605328548075894528642312364305703286447777297395569781908005447907460119376542270151942177078535794035742589711028636577307828686866600452720981468856239808092840801133480827158528.00000000
0.00500000, 0.01500000, 9681245818626998033953358677184209118002697592305657122658649640383341379898209327384484062331809393190582283089240016868695865433403836342423132908406337500098315594902274967683080375929531283965466314866908550569510031747762395613603121288183808.00000000
0.01500000, 0.01500000, -9718763543850831769724031299536752659613977293187692346484028001303028481393543916315637237758056624669139008393930636436638192574763378519588707321759013334676581756742560146463590627976628918554323058677287626662440192347581292514479227069792256.00000000
0.02500000, 0.01500000, 9484021427257410844914096383595199980500460381726634593852524355880615390026129246252054255932400264722902297405354820690305996099934929563688856678870353847058966164532005025851439045351618540002656339562813546472267722886617712507716942904164352.00000000
0.03500000, 0.01500000, -9069450959362501994220434870341621133791105976460070855405274568663535811473250977719870215361562636826251657116365208274688716522811719670000040968828320310615799477782819293361270143936663881054826125108729983497849910279986364094452168279457792.00000000
0.04500000, 0.01500000, 8666115217034485475486078660587125311978650356186036531267355795181167663873328613754945914763612301644521158365469639303340217582494992134011815241482147643505679995123471995947258759392328551511825418924622101223412303804837411403586979235889152.00000000