TITLE = "Linear advection equation"
VARIABLES = "x", "y", "sol"
ZONE STRANDID=1, SOLUTIONTIME=2.85, I=100, J=100, DATAPACKING=POINT
0.00500000, 0.00500000, -407984345107638831346004649422968500188183751426549947162304350124610726801757512703746396248998645668162805136905164166087833550848.00000000
0.01500000, 0.00500000, 352808483679278886548474219516641740825776195420880083589806932504957835511157657655586945137114042498085590058076801006312376762368.00000000
0.02500000, 0.00500000, -289734537441354499528263880471747187599478761217000485661810886180432091034138089231529619645224470652038098032941445321368283381760.00000000
0.03500000, 0.00500000, 213532012447028503800560544228934366806482153413144466597703342667921514270384991117197148743651157843197409252658690596918773415936.00000000
0.04500000, 0.00500000, -151535592172226013086708694124923692758320544360131247164136263436028722114227736356634691258652258099250859447718016769065245212672.00000000
0.05500000, 0.00500000, 100784682612685301351682157086942446960408696098256649997244776155818493512454374402336082011186645892624895273496266274386944720896.00000000
0.06500000, 0.00500000, -55835399791017826790634441937777619275356351063960521645496445221821908476411572631101753689925469676370946974302443424124225191936.00000000
0.07500000, 0.00500000, 16354306294037970272484784147105204953651789779229469331741414754316820432582547930979178333315182824689003400506228180256531939328.00000000
0.08500000, 0.00500000, 16261310943999498886510204589622307120541256571180292903059394502460253304552425208390924384075332774498784995156407513471386648576.00000000
0.09500000, 0.00500000, -42509708990458478294732080098457120663983863757028893919104145005836780703230179163984507001467526883217228112224112074050599124992.00000000
0.10500000, 0.00500000, 62823088471883030359680695553178151809759159372566044842376567575240701291382866770232780418264311234747028431197518816807804207104.00000000
0.11500000, 0.00500000, -78480198767863148715859613345681646920464570261929279227941573118106368284650295151533719901189886237419495634397846529845464399872.00000000
0.12500000, 0.00500000, 89985226265875467036181355859988432276714666054109254959255737500151075415434428671075093198003124140813245193928820399061350744064.00000000
0.13500000, 0.00500000, -97712029854760762853454023727561234110695313428580974855012019896321826071547926828962695240432629112425073185110137378352027140096.00000000
0.14500000, 0.00500000, 101917594581359643835067483681435415195920738885110271967809838293592427026430668695688835317861025112794350248697824321038215806976.00000000
0.15500000, 0.00500000, -103786466988734948029721385369819095365511384314215126124588749482057015199902905980983771221976234286156986371977125342030166228992.00000000
0.16500000, 0.00500000, 105714560390468271052026370051306752450034369517911467364240350392124522468248012278558839610301500517615172471813378836748715425792.00000000
0.17500000, 0.00500000, -109416679450422058714126218629324251819718458786806127802752333306783241517619019702790173539284083872913114464990663876505403129856.00000000
0.18500000, 0.00500000, 116075172665881295335065743228272099387350305766421947066016082634478267988309937047772203014925662992548028793434067819790052884480.00000000
0.19500000, 0.00500000, -126106327512834422639542177018790914382328814069821659788166379461931402942968296637195939341240034612934901108236975809442946744320.00000000
0.20500000, 0.00500000, 138780494292283931001313714888598262951617139065199378824679047863684406265648364513502452938094197826293861471106277046416926834688.00000000
0.21500000, 0.00500000, -153569055227468318454818807131944791440411963406520330988903898540370483588980005973452953257353209131989077076316107896316542058496.00000000
0.22500000, 0.00500000, 171146187087195524638658549959539601481074717961298453423473364058564335778006547140640521874026373533107346385507029209719794302976.00000000
0.23500000, 0.00500000, -193494435573771989363085268220271383758573413565754627663681446458057517350967725330289708777959196038748276583428672039104223903744.00000000
0.24500000, 0.00500000, 223100147733078097193499146503201815257479360472154001011340624459076005450460912196252696470161319852072513106108086348854287400960.00000000
0.25500000, 0.00500000, -261572728615499777264143141501652355353078705555749936474124343800771070408010458757579171423642761522147150057934751051407658319872.00000000
0.26500000, 0.00500000, 308106607960423242950661052606570518373907853818751616254031694249799758442123641739873930170155130944147309578412597129103057879040.00000000
0.27500000, 0.00500000, -358726469226787433513879725065838902606873079969452409183557322660187242601738852335974238523304732033442030902959836141784427134976.00000000
0.28500000, 0.00500000, 407784491621127384392693695344666194598161763585145490682651454395105434596490336450265820603190015107807497486219942714086334136320.00000000
0.29500000, 0.00500000, -451079233512396836817962740011813632425653061578105338727901634901520217025725307583116344558811260617819467118065365416550755991552.00000000
0.30500000, 0.00500000, 486548822209113392768741330756480445442266852111973040141548785935653150522422041672645974366865675071568990131462917491918251229184.00000000
0.31500000, 0.00500000, -511542249336994591781470464914302746405905124335193200501724568324389478315191653467835802036667401287536738317847948847803709521920.00000000
0.32500000, 0.00500000, 521783119401560014412339729647235493682915951906727697640297651873055269382541411663438071245429408892132596033077102463881586933760.00000000
0.33500000, 0.00500000, -514153047554780661388088727035829461079286483413778566739892361828616057193997922387345430375244678661621865176665924391904387006464.00000000
0.34500000, 0.00500000, 489596751017969670604272355593158982382945207313747160304448818300179620519962175342717709051395426479952704846529960354971484422144.00000000
0.35500000, 0.00500000, -450992916737918307199405396776712266329574682721708857235629097524181329154737864056968524546708070089138214671671571541072711516160.00000000
0.36500000, 0.00500000, 398627648968005996201913113814709340294652037475565577565643913672519697910241298425934727248220394842919454062569562300254422827008.00000000
0.37500000, 0.00500000, -333276728771471904865397883069236041286779222225752233071459545429020471125935129075392528913079649927842852675246922194953114222592.00000000
0.38500000, 0.00500000, 259964167828478849551295878750330779215108838342202284471981256637441273179608296516320009211594044974927648230626470851868197126144.00000000
0.39500000, 0.00500000, -183276032876217904665037928412739663123077105670493269638410608879503443453321700778103946431515555463349373021522361302981791449088.00000000
0.40500000, 0.00500000, 103758731877196497342371977210669816621754416721691254719477196663525626165734242462010058574731153962422505849280416222540751437824.00000000
0.41500000, 0.00500000, -20117455721502785852557764658016203848318868905009549416632073412035063329035344666452721515611955622052063133937816151694791147520.00000000
0.42500000, 0.00500000, -67651600810727178516837537822894238361480384239668281923897342527084236693211259446929630398485537490755226030881847202829081509888.00000000
0.43500000, 0.00500000, 157554529674032590954560697198317675212189701546558726038007598947520036549271924441429785966321341370956787032786176259141675253760.00000000
0.44500000, 0.00500000, -246833546196697801969777481855587457965012401285281894509926984639882487038282441938680824453020640192958504626140620487074412232704.00000000
0.45500000, 0.00500000, 332893693254508323979133435064650147487021079732687514774718461414300366944083595617722948316789099589675012123389509465387816714240.00000000
0.46500000, 0.00500000, -412839178976626261360197559480848904331227970962963402382832560913823436485001315911448737540186684287636123257940052986832806215680.00000000
0.47500000, 0.00500000, 483075930409880964416973096612496403138527669602214106468926082512352093523935123873856606287150900359161779082508718030776906547200.00000000
0.48500000, 0.00500000, -540578507015289497409389226970792358755391819881976926718711451469777747953046548647554869173054919021825081074056653909304178376704.00000000
0.49500000, 0.00500000, 580512340321717440003123162127319113918265409840130846815712141224091466758715237664187275342375084450469082294632416687479188357120.00000000
0.50500000, 0.00500000, -600078714183072517735101183450360313659724313015404955326578393748334300040426689411474905576816283635840111229940516612515093807104.00000000
0.51500000, 0.00500000, 611573023504387287562371899016111081561250075154826492539893609605032769695983836990042932334666717602705612590541475105588090241024.00000000
0.52500000, 0.00500000, -626300336107112522993382301032337487158014759602884475497578079243725444813232480794463064096697264855164508807414027463509732753408.00000000
0.53500000, 0.00500000, 634395766666241716950533679047777202715525624548042661626572774379891452098283972651116376060133829237972517364254715094536053325824.00000000
0.54500000, 0.00500000, -627897480955715317222461562023387072765610911668740104657657481842751234220144608936447864816883614578290091514122660947851539906560.00000000
0.55500000, 0.00500000, 613885210365885075312148380084792477638693835709876900304047037565426961367719130760108555971582918951385124453895808637081655181312.00000000
0.56500000, 0.00500000, -594876994586043044419591008211569392563286289410798578411123391007772423195017439556734091875994713083708698729447245158178122366976.00000000
0.57500000, 0.00500000, 536545218802608169634568806556936732782665249874934913159075728649890529988587107542302054816066881521879422647501696950963896582144.00000000
0.58500000, 0.00500000, -509957427739543321154208801781149590344873351828631393562318721198788932962690082542755222104878858900456822286709560027406338621440.00000000
0.59500000, 0.00500000, 439631322998752990874200168066225512175147785053159716230986869076322608639216250277938510014011597640587721512273404841421877280768.00000000
0.60500000, 0.00500000, -355013668640124084625380996547057777748225660269569414028147807817190955932373700343448006009612593353872022525911639358415617130496.00000000
0.61500000, 0.00500000, 251834282023501511979492263963161199812764372316700496301696561537453855963646255149941586225219769537749178100983663780488175157248.00000000
0.62500000, 0.00500000, -127153180171142471080260921780287936785438695170568274167215177403876480978706701285142616060387755369083820394772103321620511195136.00000000
0.63500000, 0.00500000, -18844313208795920161393015595145931309944169316369137168017720103639972603723767967687482263322990264135500581431216774610673467392.00000000
0.64500000, 0.00500000, 192527194339872273695251015311020479002371339080294263864257861208324061306748368875913046392665207906657077382239351712394510336000.00000000
0.65500000, 0.00500000, -391733533410324254979623475603288411557244602749328278397103415490920569668036303845866737844081828487332485844651507988204917620736.00000000
0.66500000, 0.00500000, 605340526895192095321940131470083586807283858246184565485513975621488842744863912858779908765542930892395959705986332614431206277120.00000000
0.67500000, 0.00500000, -825129919563501951833588158795092090125365586860275010152384600168007405193157851502588594570930852175764671778949716682049092321280.00000000
0.68500000, 0.00500000, 1047165045922003281360072953100223038680136252342013616948093289259846436314665894015164413350901802204732991705562575101033585836032.00000000
0.69500000, 0.00500000, -1273668554392807982264788388732921960832690528673866763635193826570396324762596533474955032567668211915589389762552456820341866496000.00000000
0.70500000, 0.00500000, 1509366440614462692820239654678066229978159778301646102837577149408407625604436432340925360434806000355682197940397504164024173985792.00000000
0.71500000, 0.00500000, -1755145083323029446445057615931385886734124342301192932437608985598857002204544628792012562755320642494159120216268146937797034377216.00000000
0.72500000, 0.00500000, 2004023373297891845578780250298951060203619777185437128057535151322762113189436413278450455148495236894663607288357001372723197247488.00000000
0.73500000, 0.00500000, -2223295004416386339253584973894468678913414428292817515668918463766702433328594367848310655673898245468763096648247028503443648020480.00000000
0.74500000, 0.00500000, 1579986638972928379455552708959679583503256034379908897041216905323248247456567338047189420567012019098541555704566177002795766382592.00000000
0.75500000, 0.00500000, -2518857059721412963791511316075244332476090336260444360312080238547367218925022194543432779099946229325395062786514512741064914239488.00000000
0.76500000, 0.00500000, 2698520893830225462284210278213678514777460950902371347976487815328104432114377136743434905963228375712066548324556081669637368971264.00000000
0.77500000, 0.00500000, -1854913486759910644344573911230155810758756668078157069480648752825690556844632003764414817101673637562787206520875303405695551930368.00000000
0.78500000, 0.00500000, 2948567129692974707734049819713987795736932420951796041828778607575836033120603733994580162777224128892780729360073039191588831494144.00000000
0.79500000, 0.00500000, -2981255753385433370379744858385683513324263950975879913454688006076502852680794673930908369790285127183737342462077654174062962802688.00000000
0.80500000, 0.00500000, 2640609774383401512028457919338830260734249437237317634550048954402510126159936429300108236366209328488125064470596315639998599659520.00000000
0.81500000, 0.00500000, -2519227278264708580224649889156612771183516568358890549820142001534812165196425247488124959099394753428911400356567931324524593676288.00000000
0.82500000, 0.00500000, 2711254471099145300113246262652091442974333503653350367671947989551790058231425766854771165703437328430871067517274156334723341746176.00000000
0.83500000, 0.00500000, -2600173652605094750316619839063627373558629565668589201800200966235007278386069490062253959367423775596608913487620725066100625113088.00000000
0.84500000, 0.00500000, 2376929458613321902779112918182230821611797270496141639307760538150855437881489318748471393307404888668138013146014760439553244266496.00000000
0.85500000, 0.00500000, -2066699680396914254084239371063567258319755189741473003128090286632442742825459713613406616016716303080026795183878342269694258446336.00000000
0.86500000, 0.00500000, 1695941261191336536601088788890833603552305817099016538677249158507320056388339271537053597249359207705261868571734226912398645657600.00000000
0.87500000, 0.00500000, -1207499149164091671602129369973645787217901812805376150734682901293585764417930367786560254795594553255642822272103179211782152519680.00000000
0.88500000, 0.00500000, 964411518314683368895284690156254276698115988277902282134086117957143683952542400676653476525189981234032945661281473734861058473984.00000000
0.89500000, 0.00500000, -826127897484570987366560435160190002484023523069335496990147860303322883255008024549128482855000207447870186643084158658221099188224.00000000
0.90500000, 0.00500000, 497142378925255407354570646144578452021973105675575893665465492947819989225352323406840769597282463457139895419626158905385616932864.00000000
0.91500000, 0.00500000, -245259434604199185974709201651095449856707051911941906764155903115476313731994573318546370136138553686525870133160034742919418085376.00000000
0.92500000, 0.00500000, 53172496128244148921202663638813205643047576559787098239652272076051516252012460410752024655131130778355718025750373467537258053632.00000000
0.93500000, 0.00500000, 120136797367390659088754467931360054057137992403534549015984662218210595048971414497557665271429996330673243388401103412183095574528.00000000
0.94500000, 0.00500000, -225113043426090636092738295110604244212886140111882416096995733054399805009945537586956318001445105166100957858400272968816839884800.00000000
0.95500000, 0.00500000, 314049501876570750846196845026571277279002742906235082574108060473917223302797591030469981423077769147645407129843164159930840121344.00000000
0.96500000, 0.00500000, -419045815461559024622095255705773739022508424629004394141874629675653465054937645451976570626465486479845259157529724568937772875776.00000000
0.97500000, 0.00500000, 473829898865688528566163436085937196638967134264859598766176727238553360516272222784716827959027939944610649322628360863218252382208.00000000
0.98500000, 0.00500000, -486398353688507613130323401914757079321955731424355573229211318916615282440436690840282424083419207144229647172056779106424853626880.00000000
0.99500000, 0.00500000, 470735163301425024475899398711844867715778769936668349016805231427514009600912771639635378602808162476782491269823200496299464982528.00000000
0.00500000, 0.01500000, 332941327863226058818522224776748998752231580125201239807558259321835843859641024749328302470485670606258292383350165131167965118464.00000000
0.01500000, 0.01500000, -284303984065524929622729727640738789455582647672241141760175893405502523664482478976319043864706238905363160076891589866618548649984.00000000
0.02500000, 0.01500000, 218882644805189939890288190865446150956727559775247309994432657390371044420140784085836645383057584769009771939062918600576922025984.00000000
0.03500000, 0.01500000, -155719288078122326831462613808844685640792491664240030993013371698481512881507654707846398770481021380763055945061841013799485702144.00000000
0.04500000, 0.01500000, 104328501366396754654371480317038046635628591467793315700834097527788678482550314652739687026643818619354994680492219564441565396992.00000000
0.05500000, 0.01500000, -63502826454385558936655812560324168391927785201796628164390697329736086758898267643945028919610394692539364697793991415809091567616.00000000
0.06500000, 0.01500000, 28484573625704701860649671537146865910020808049238230036443475459336222101141234195461640146774437029180389170111443349272862392320.00000000
0.07500000, 0.01500000, 1547848588706879286228842941184288001777411940818699425048795029339984368031246783192338259550868774469187982061974177189231329280.00000000
0.08500000, 0.01500000, -25831357710808150408558760954090062150039774003892294351489200419659444330325255075513328506102295845879720433377380000222037409792.00000000
0.09500000, 0.01500000, 44621783853245990911028703941222934683926504268887054788654633936437096836941398411431485387452920053954517866585319909562855194624.00000000
0.10500000, 0.01500000, -58911664637625501192820949287947463336885448043486106276801679188743010922937603386564907744535130591804209573370827072291397959680.00000000
0.11500000, 0.01500000, 69462380126479412958395442422069757959977328066980435752646337666548479010530858477158104666226785736035813921566129912452619436032.00000000
0.12500000, 0.01500000, -76801495576876519087413386719996078630142287461338315329223149455885835811102716786984283001380011175013973355962685398632661778432.00000000
0.13500000, 0.01500000, 81603126441821580847326172519888985095193606225869406380888206973449259339335117595151627528615587009577049943028137418190135230464.00000000
0.14500000, 0.01500000, -84622212580543631397342386619890520591949332974693238939718227590117718440028994572301899104552431503596120106107632591033551814656.00000000
0.15500000, 0.01500000, 87188408053324961489048209637553033926924942861336163213427523404611452227007648246269522528065159097387696027184507170459469479936.00000000
0.16500000, 0.01500000, -90863865023752016576090222342196998674655980453907549404417516307549299512179863396025900735926311185602801753505393296453429886976.00000000
0.17500000, 0.01500000, 96792688870580592008813996708677532372213518536375885790354091565773085486147796668942970649789841448092906212685528968393683632128.00000000
0.18500000, 0.01500000, -105427660594026485888257199418798084757872818660392801616731678370780285744784126248412701657968500264530242676887354221082527662080.00000000
0.19500000, 0.01500000, 116325015897155998963393167076829685320967213382174574265070861919723973403879197237059633117824694380987627554845489046442194501632.00000000
0.20500000, 0.01500000, -128936781123188937440969613692947870656009970887349428828937310235166668479086880614195735999981977856503647734723056108955391492096.00000000
0.21500000, 0.01500000, 143385294440663335493486845784306317082453691621110797113501393391202738489552574033699737914864534352763961956958840457082062241792.00000000
0.22500000, 0.01500000, -160824654264530855282199792437248588969299265217504888273348282449314473682434586258622025060976587824237151148011323087550572134400.00000000
0.23500000, 0.01500000, 183146689518763541982697278734059530647718809234734345580926837135784634410173433069139356794177253654790990427819299897204245790720.00000000
0.24500000, 0.01500000, -212120575646434014420151636478765784660216559466813217051051234539014983937142881550366924754288299738349584795240867831327882215424.00000000
0.25500000, 0.01500000, 248143496597279781569150310514693011688480810619653967346017549218952795949919524807143881361408650136955740642915451032552674951168.00000000
0.26500000, 0.01500000, -289002597954720250128181860034587694154462304485100832716617322479089429378543916415233390692939703476892934885574688069142316056576.00000000
0.27500000, 0.01500000, 330063308891292717563254784164190517845825257605869342323437824086539381624544995308572914053834164388265938162056072312334703394816.00000000
0.28500000, 0.01500000, -366816861147307586109601078480292099426049379986546259821316300331984963780695956674348960465154081455926238890638821116933939658752.00000000
0.29500000, 0.01500000, 397199997887997119290251691955004600233848175297601417907568035545973855039048112750899351944087330314913361152273221514176824868864.00000000
0.30500000, 0.01500000, -420299765663020080245524229969030614957452847421242017615136015352941389807269110983769474582421167687723842223440101765079074078720.00000000
0.31500000, 0.01500000, 433725363737244749877258482811272787680344849666040979747885227169450442037956813687491736661305674465137244674037906367690720673792.00000000
0.32500000, 0.01500000, -434835667416211027742410363546117601762454567538267392412208547802431725593820379304721269269494516455132090722064772274110838341632.00000000
0.33500000, 0.01500000, 423504609370594610281134913865958274263456680605928972543059035745707359866981030844577749550106515276173209051718611628910666842112.00000000
0.34500000, 0.01500000, -400917809128279957879875873372039337512233694918840319177926482707832318989817311572879520521631938539013712774646312437912180883456.00000000
0.35500000, 0.01500000, 366302678293725469687897603698602200127772426930007567820167341200635236691447458902590199300015282299915915716865108368932605001728.00000000
0.36500000, 0.01500000, -318474585053420885230227767182879734540319736881608038372645036512968482430599766862227343987575113354777822232864138306140378234880.00000000
0.37500000, 0.01500000, 260308312538736356918086394197586891111353315284628790448726195787372880078688010567701894890912928944561385802268032951426259877888.00000000
0.38500000, 0.01500000, -197009495259931642729602457200158855573239935901702869589499430570042638469226923306212947807356334380872181476872240698659423911936.00000000
0.39500000, 0.01500000, 131262250096209049849841321792827954895237000337432363504923448539807643353645154318668928737728079939026849553524379115209357262848.00000000
0.40500000, 0.01500000, -62734409731468220520810796178012060985337037322380944770380195153308088888326067064339636468490730460926308168154169907322743160832.00000000
0.41500000, 0.01500000, -9071442819626991857658561771410795484495776703314903157225111415727713886492745952622873151340579748973690319091196796949235761152.00000000
0.42500000, 0.01500000, 83067537434956511310061996159385276017748366176777896435937082924720146672163289433121140648851368298042644585488666877276821913600.00000000
0.43500000, 0.01500000, -157066436880631339384083021982928046540584258969197400504288049271936299960448480673723367531828604777841720576482117332505211174912.00000000
0.44500000, 0.01500000, 228467857471275571334581107630102155863299754114031693209603392287687993427453264857925222896561384115173827683431325528583349207040.00000000
0.45500000, 0.01500000, -294606127726532885320551900799687291159387062044307468505487954731708484791062815012132052941317747711895968853846514491660238323712.00000000
0.46500000, 0.01500000, 352903432495966181451112237545693632479525885445614732132551104819739168905917594327098900309304086510078432523642940198038752198656.00000000
0.47500000, 0.01500000, -401417242361481414532431432089225816318491759398997518405760261458734292866229153431629092131069188485503301195849204072054893051904.00000000
0.48500000, 0.01500000, 439544907878558286768996747608347921637867913196703258385404907332818396316991108456072750180184180883881709731502130859987026575360.00000000
0.49500000, 0.01500000, -462526197379026367755732833496220371453603516041067489471535444634679414189024935734512715913605188636535154143315112511439936421888.00000000
0.50500000, 0.01500000, 471392809699754212988811104136985066512605557530769880620771750668770609284613450240670607773551527926574157868586177461960849752064.00000000
0.51500000, 0.01500000, -482042906801637129434069939065590446313069612005359998325109181435178241659786121733230994198895809328816767215024817862058350477312.00000000
0.52500000, 0.01500000, 493763579591063224835076821247969900336050791926183064774114834522633953493238524611723772654157468023870363179542921131488935149568.00000000
0.53500000, 0.01500000, -491387911302287179826803800559161644856306986455838422834262235259322548773029282030528504301875669892015387805863308836137504604160.00000000
0.54500000, 0.01500000, 477638104239721827553707736933649646028214175645145072385518932081375884450580457258177707284731905739205994826736611804952041357312.00000000
0.55500000, 0.01500000, -459882555875429397573167281672693430092975265599928302241448135078507393844140377797483892042636284486471868414765720829740858736640.00000000
0.56500000, 0.01500000, 434439277392492103644426966995217712792873788356800150768968936821876019402959809626140449141570237763337396791497833723950167752704.00000000
0.57500000, 0.01500000, -394102233561834355026493372660208221908023508548080580659819433465921051854033427162982754213614107887685044056051799413581603143680.00000000
0.58500000, 0.01500000, 335117558762913447677642381224230393595697482540928371566278123419411682330015421618213340891671698333110519469310933715840376242176.00000000
0.59500000, 0.01500000, -257519462356853050974436073904668771285630700221767611541740983226971352881106648468676931232448270447074049477148775303903096864768.00000000
0.60500000, 0.01500000, 161470915915753915998764059517892467808455218469850772570216168231951702874176078070362689819973071236220157369478851106917603868672.00000000
0.61500000, 0.01500000, -43156344838461927790977005653131010424049617913462180119443765546699838735818736411743375476040667900287780430194178690540537643008.00000000
0.62500000, 0.01500000, -96637132897588213744965974308277558880801375647876054515391779073197393680158554333147672524418164465078614905088154439848617312256.00000000
0.63500000, 0.01500000, 259120832649737004370913017240547941451055796593290561095460206233494697915248520765043417756740221238362534040716509686473324232704.00000000
0.64500000, 0.01500000, -445687663207197066780468221547096484029869477559475464317248572032822366213785060924545069714207044429186408341771710784990840094720.00000000
0.65500000, 0.01500000, 649137527333330390935674298314668187324594918803959457040518362638950381773055931406745804575041270706882533185411562955847657062400.00000000
0.66500000, 0.01500000, -863298018482293473856335490818136525288289742536666401627763632277117100939215915728983391158506305022349900185707604684928180027392.00000000
0.67500000, 0.01500000, 1083597565994405911183315352733871308278437430684736076877553767531468254332677053399199246820693311785561044752488728669680073441280.00000000
0.68500000, 0.01500000, -1309951001765507120156153250687428552615010402685594287251132022142890144425639713645336962899724623326046060140157926596474960871424.00000000
0.69500000, 0.01500000, 1546970159692431466334265830449768017930973658601654416000461247139156644611699349169963303519506991388521082436905131457564532277248.00000000
0.70500000, 0.01500000, -1799281589564030250785791197072500965511591371762717554942999635261288878836000079443082995433873017924577143690599933004973225279488.00000000
0.71500000, 0.01500000, 2065174201790772310468511760568091302938681245911462180344611258128949441506728797569038607334797672077247105948017600843064090296320.00000000
0.72500000, 0.01500000, -2334377250207981513385366584258872117502654988651846581937201549111615147695212868383221953405878570927949189095475800613932201148416.00000000
0.73500000, 0.01500000, 2564735479914041874814564584018494256305383054788047108740461500684669069510725860255949226080315624759030477038758443582793803890688.00000000
0.74500000, 0.01500000, -2738776450952914781291547320518276812418100563225343043056535959030076405670439122923879787999215402304760633789855917294998651928576.00000000
0.75500000, 0.01500000, 2921031947573838798966024754482335420911147743600348184108834780708667451425932419136927831681602146573264868989332209859298135638016.00000000
0.76500000, 0.01500000, -3106468876817400095488341245547497440073061458887532171764325255769948624977349315067337861148606253287243052742263919182336728498176.00000000
0.77500000, 0.01500000, 3210062421567207842191056671199282957998072407816702965417884338549479430712730578628075908904591669609410872996960410742539792941056.00000000
0.78500000, 0.01500000, -3215943172329616329013119975012651972951058277636115196157016816726291030957459454474876411586112579472271564687208005427753165783040.00000000