TITLE = "Linear advection equation"
VARIABLES = "x", "y", "sol"
ZONE STRANDID=1, SOLUTIONTIME=5.2, I=100, J=100, DATAPACKING=POINT
0.00500000, 0.00500000, -105922191348493208798301870965807354251331015549658490214539861725211084184680756880726077905684769738818583557734882412227256922378994848945416522261545357178576584501974663607171201472937386755765532631744961224154906647639816566991321300992.00000000
0.01500000, 0.00500000, 93013624347712298564380265191853294485067881034464991330821010005105800612681826485751177471689699140148884426359989803085496308314129580369014738829862847964819539254262138455570334674433689170195278053979548615627422176675971877608827650048.00000000
0.02500000, 0.00500000, -82989719793324678862352666752300623900565159322690447936029511385614072176458465806633288072444296957863569096733354134748328558387259672717906653442613841301809975231169088486963343937805242202846282149525858890519086387901586523548809166848.00000000
0.03500000, 0.00500000, 75428667063061565938188989793832574926581411998056504415803469304870309955660417184734409409919246874996648250457208536281310960913619373401611008993697343240428262047505984161921767889629592870214256865941036157859128460877721048108933054464.00000000
0.04500000, 0.00500000, -63655344164330145669268263683008493013838327962684211525012301412505530056772202774487843411797781406918260472603918464474052532247195628415469550026924647270112476454720938052989227529151131828394736118947344058512257196331089300302858289152.00000000
0.05500000, 0.00500000, 51572660887096987616452759293583465058255512702303211198714533412033444128585619051451077769863832888241793400634424691631144436025448375581670063138912768993434750250090930021365337270378316865399914212229298601688662813239435202991499509760.00000000
0.06500000, 0.00500000, -41846022458608998813282883101990848943535276490009488238535574704315851249289572376775046559524577552814461108077217540044435081198636695667555280809008919603124022093124640805315442978535504429468745443483957283761647465562573362924846317568.00000000
0.07500000, 0.00500000, 34787989610368808453945985863551595896618843225685703169555869694927632947719311060076115635996946446489572333391061948783528076617093398861515512148024258950477436826150960626686897626044913162437307475019413981187533986166435293007343255552.00000000
0.08500000, 0.00500000, -29198583159334727055481858740819746368478547282114900088217687267984403302252844161981237516104769693419937131100827986183363617190273898540120100583773582172188380327347844001443154571408862329230458528133156401518057439638811132231415758848.00000000
0.09500000, 0.00500000, 24474716610571445615633717666735485903059554271256659361847164515581073352490230646171351012447369409476740348561299447910837868922292427360224734962719018028627547456357531693454542185363049955541201299924577880532129375896189692173139050496.00000000
0.10500000, 0.00500000, -20851498741306010236786574367476719243730397342050132209888719596585561727587115837634042273993942920675713132172207789833978740474907309024578447855281823722827439635165593686918134530533694147718722407930394435361982474284414079216943890432.00000000
0.11500000, 0.00500000, 18690561689067457689784184758466245964362878176763175365654194795897652996491675204467286225148528523075330335878086559229190962283501392682296469332036637275827468393445588582838391504178153830808253085856605278052148666094644263784638578688.00000000
0.12500000, 0.00500000, -18375081047676158675796691260525200918883646518422016224009885797938612879308781667530649837214883347135506935616127755045272793458856072449556084301573228577559393340125525685350057747238625885569283473498179576891936267811641054858817044480.00000000
0.13500000, 0.00500000, 21128231463965945378405980610707817230841369505006393322405944499019419366595193811271815234892318192798981333998292014560141209524044484629259287586790072901529759244340083270426753735483426969852121773680661773894750806763650973057845035008.00000000
0.14500000, 0.00500000, -28347543368529042156084492983052551196956526782011514883585824307901313507503843058935325137055545127995691905560581091668930613480981811910711113329956912079903965143244835018325328253603868296886639250167199914187619992631645371335647952896.00000000
0.15500000, 0.00500000, 40404704031406767320357757508187823318490077224179335636965666858384475138278975068427312758535686596643964556351850114268018165999952048884757514524422359738653312858001185432681641197378393308935757132137333684540332643740474774166572105728.00000000
0.16500000, 0.00500000, -57738887432520155420369553601607465066532738417028408463387507562489452282384385642009230541278611656387283343205287930415513744357027310907879584510924896700287077428583330828464825017577767441799148892429052313340674018069825330690824077312.00000000
0.17500000, 0.00500000, 81952031752631507027308269235640679895292248513386964654558880555771186105103541571202143596568358378218035212520031314987307176398817749732034654076145252203576979453821953936036012485598915047698195800002846882298265191236608967411419316224.00000000
0.18500000, 0.00500000, -115931204100521887620972516076372768280322223141533279640038596439324380263158537153112698567413431756785840558353436093942432664923876819954834561771383668980342797086955939485849054578934407936285188044668062379985056769051121767095765827584.00000000
0.19500000, 0.00500000, 164219458080855729956030239293607539709559320880996418511484989299597659876293640429229381069906101001762434237303932591207619120645210800660252410599554303395846169459065872360238834406580995519863113947567324541370430169262835260181712994304.00000000
0.20500000, 0.00500000, -233758809622582764884432393604973135467395838161164881801012250823713972113188566300058692416001270953562038392887576688198388714013815071918640076481699120744692976431495126228711873468707850744888510496026140349778776248533571184653311672320.00000000
0.21500000, 0.00500000, 331489505136331465116341063523876619123347120218306794611433074558750060260847033562602152182396969079663004502242684778833510914270626189762873210124077045569350509080641954534654730243321489638605285030787824023769209739195754406352984735744.00000000
0.22500000, 0.00500000, -462543283950157450516478664585158685625990700144414597342335846693875112176978398974858267947113013375050167194257310379122263031594621344455175934528767611640096989608094604576572007736054606264371421023939621263925624673283365362024048492544.00000000
0.23500000, 0.00500000, 633321582609668797231103214827995075420513925310385718614348239748367282016413662076302445502189785510098163782372542169773445828518887372682892599951716121019673504561958518384393419552087738327260846275262990262567584568447440415988792688640.00000000
0.24500000, 0.00500000, -851748683449006080866372100212682072072847338888594275779556545842035228534544299077925210884180892295056296150220301491088126007976899726041085214524705735829696088009701293450457465489409415424462496443088896411776930983980042413121936031744.00000000
0.25500000, 0.00500000, 1120903874006340287102165162740710807168374283016592030140497013530430698788644451878271556363381270474084537089337028271412486017467109092526409221979341456659768820091128963965141103969390185027750970604460562945471329506173936213951151865856.00000000
0.26500000, 0.00500000, -1446565026734284712588218914804100056048536145347004930721336906512059583915862482329631521212184828074792883072356602324269419189900554482794475425872908512037742030492397196987994376848264976060135624517194145355516613901951016512799515869184.00000000
0.27500000, 0.00500000, 1849449230798230758003239732407356510159410541093737502880496871925601795438972829682385349786602510521886501397060844446759086021381598940662898739556442579076238149670626559281162528815778377972978041735761519926492218635750919193687515725824.00000000
0.28500000, 0.00500000, -2342159238907985576053049648389581388528794919560345665540564480121627762464958595989637410119745614712114310495412067468782819193266360292409299276418148239036400640421908022625773142610458687565515591493805731062311479406188451889977892012032.00000000
0.29500000, 0.00500000, 2875987452479655656245389273408599478941634936519714663585013654390972763516424820119986194412169725809905713460623636871233369993381024414736367553007986784164834026600157459269327887974065921856810586353250215805801613738889536287888434528256.00000000
0.30500000, 0.00500000, -3392215124227185357273950770877213708110178504343747246811688536005749710900461036505632941100173255403765253720791814025718081980340858264706210427929414745228867054560523779779051263115155613462949769686244661086228447080576573132545873412096.00000000
0.31500000, 0.00500000, 3988068511952410293202899094985552405779094262084619663030775443232240991063450103822560459977336517824390997525336284184401540827282017349051647530587850503380389926513407098512728546891668387211861273465710478478984667003702354759469578059776.00000000
0.32500000, 0.00500000, -4854315808600135913577017880122717977586654375605761656224512023362815095960700372105007492219214613586571728875070725464637037488110690303988268784414638206798640515907383034395525180792681713387148513952306655969023569599610749392943094693888.00000000
0.33500000, 0.00500000, 5993579283467527315491896600896147425390416785052357963996378319483905954334723613685138682958771579403967897596668003273528164261893388466698932091526392112896927636027972342674960101651974303323985228242681768299247208523746069458610504597504.00000000
0.34500000, 0.00500000, -7224035332421423627318053634178404332493074412366783443661631959885755982524324909866864800589772386653192201905101914198472097770765968813786785348702654672704832278304351348048242767341548597469312100753792219823440194207351069790718763466752.00000000
0.35500000, 0.00500000, 8436871760722118343616500179734171076366238120320079952951392769265268303433392523607658377295469000999238969804774763472999165256006815299496808942777487609752954654160057534692306847275697657781818191514147725191089108574284496787205458493440.00000000
0.36500000, 0.00500000, -9610011432882079896846655221886152739380631041217775137032596601416873904233045930516377858661817152406524927282375127130381840783200715801803809931338818737430907352883715444758980852041650475397798807053668473916114484351116022366270721622016.00000000
0.37500000, 0.00500000, 10690049668231856742571284239625296887357566698489782682283878903115611700161459583499318376015889453421080230636669420692452370112839377295631624086215906479450054852919714038131427292947454229813887262515806937671132922405602765589714252595200.00000000
0.38500000, 0.00500000, -11661376487401876797436339238257845498306238293177127434953611102116966156044918110380723058732432482174817532246817520318423972598535712856847442668618317844626759754476523759281595515105254613800613870484707374699982845001689452005164996100096.00000000
0.39500000, 0.00500000, 12551987172922562026739522934168517965121290243699493739363012503469406697171566779978062320375803293070199241239163314542821270639247418888951371115537018809003868441878996400437119951639138506242353996460523262531262826129216874566769744805888.00000000
0.40500000, 0.00500000, -13247875584190771124220245592936904725873499825354546701241519169035768701845803521286501313196565265615283634846758516051334750199124005823457676530630119876503585853982314246223019769896908718754610667595646092294262478228427256968614734987264.00000000
0.41500000, 0.00500000, 13676641282819663487321547682092885750448387007933499034737704180361037397518626198691136480668597505356381224719364194574248180241716106135847800990305261125483749619790053955584446491228690605629428117234570656409672914826452331611135267569664.00000000
0.42500000, 0.00500000, -14206990001936186008110413434643939869299827797512720494185917598105127629086359558243171445260749974253413944349505779845655039122352462332984935866717264798257248579894238884454802810860012085486244767533091122690257521963182141789568411631616.00000000
0.43500000, 0.00500000, 15127149690577372941860697720765704616996800623556999559493862448301176530226773448935192304401624274493907833242628132042560832477668773235753780887618463787224110277760608683297112672396645743933852282940064589086896957630979691394706924634112.00000000
0.44500000, 0.00500000, -16149366396219366001466282172074081238405571149978888565923064941694012998377303165059615671909432497883966676390748650597036327654850741850169398090983563607120366876702946847515481025750914134973355084935177500313026226468611628262063182184448.00000000
0.45500000, 0.00500000, 16992517447100793021864616819069573777820932127153529074169935964817667400811816364334636380172663384270557371111902885475617628081008984859623898257759852286953222337275333775283540879501023728646568522865766573380638631962839117784825754288128.00000000
0.46500000, 0.00500000, -17436788287109074415133124088689277264439126014211852210144536595193710313998813628365478039355906599744151012666967449605720668241911519711818855532416804276693442123025584295307723005374959761717475706218591383426335161236675744710263807410176.00000000
0.47500000, 0.00500000, 17450660272614932906336560104014724537420858294212831897984933172339632836384750734575847319271144130405129001811984030836313678116651887334404458011552002564154136738341819078868697805328581061802541758336832849597733476174693280810329071157248.00000000
0.48500000, 0.00500000, -17187647431555325607331185283026997336810633821152736484340021310806437185758195024052300260093513742341510272287715828717589045030557274978942805427374934315191662685020421902313370138668538369998017455198074056293793436729019483118706981076992.00000000
0.49500000, 0.00500000, 16562969163791633223556850535172201208389986303644271283284878819120453874808489927522720638766668730609535036725274430477527478944018618215881529753458542882893316068530910734734128249659379645067922916576833495002991089120252053445925792645120.00000000
0.50500000, 0.00500000, -15835969840669069875516440218378320441978439023812287394859079992001608894376089996212720637453901558916224834968325423974952781696065499344247690523470544573346871577538438084831696341421463382855559074776033096780801055025084896155370975657984.00000000
0.51500000, 0.00500000, 15261859131426373266500835239569445582778203617117264181412641822018456436098004668459825835378837577111197199872691559004998028227658677083939473578899793320546442214457235923134899982092769580163787637461292206467500056998815532254462591631360.00000000
0.52500000, 0.00500000, -14651218732659838665125062791107883294554996929609374885164360107046549823203597193863495860472088315135528801134954335544224918866127156408260025154524371847130943785110809453350478782979682823632235967264514625426383683447874458909432969428992.00000000
0.53500000, 0.00500000, 13915333287177184055139168838889612294539743837820456135443850752108962023539550388745792888559417286283047992664045752351279693776255944670609933359478010956346845082941838063568740864271691430685262526940411567687906914681768653816063852544000.00000000
0.54500000, 0.00500000, -13069317477385459730399124569358779195200249659331865212129381151872302146858605399401954695685477080556147604631378566937845533922541607922829267285378087147501055236853509646726919277142275890583269340146324055827807171500354437159497056124928.00000000
0.55500000, 0.00500000, 12062479299431253610924860458011795957318634465385553578234760298689801858952218740155265022776436455881829575986322701368652548095419865091491107018002739241056592224691095195897750776105372478756236577915946695640808909431625460124569147801600.00000000
0.56500000, 0.00500000, -10818053619690080780138086430510409732439244467743699271869808124395988505102975717670389275594532748939623971716330371503356258503754729096327513511891924743412162771697498556264772267879730460195251894292204981122096302820018416566136582701056.00000000
0.57500000, 0.00500000, 9347404157803015209811548067944934943130185104026512233995294463239947054902976158018520863806259270561901845583629181018779538301624055686397699042422269354061190265938322947481032511832527461416469862703714936136934619796158787923165329752064.00000000
0.58500000, 0.00500000, -7815867651556288003051015251924601009065818715934088261800060946758814917906504114442476072597694115723439479139496802392033035961828053004200948637683637853421828482859128807035799646131885586334579615297006158416001929209550412628251811774464.00000000
0.59500000, 0.00500000, 6408484137253908147132036527839745593361677072857875216843278728743217396986286770428036237806949271975449411181873838518885988097646375480477893593083159707163566658577648936634123734656875188406117098296743376130772446360692896897335168073728.00000000
0.60500000, 0.00500000, -5193916803294249775942864986806878025948537344743997947982704864680180928359675015646217039059051601892125902453931986952138279683436747452751832898039862997734088236473376644183784346604577147997326286115190116560593184893777840171238501122048.00000000
0.61500000, 0.00500000, 4176738525708478879537331309332301300664755178425694887312803854285347481742425527919217441373651500582944919193081374188553488887572951070824167069213844354388521786772456039397993225778358986568918746975434103233782425731253074835001854394368.00000000
0.62500000, 0.00500000, -3296390872627443536173906827551326523163976905046488181475999618199387351168068845321411672039123655949736099224404060081901137540168992945392715015384183212058096164336661227400552035636385493014340401154700612926601507663418425558962307858432.00000000
0.63500000, 0.00500000, 2465171553679557545036908043103760190014461340895808136466247171669644364860577492263943857274300328522834719219930939007847656230643821849536890523238683754941905381090171012285172746595196026516759120817112324118841417789047711008961805156352.00000000
0.64500000, 0.00500000, -1667264392770545097116768402228075464180027985203680998918793445505496939645825020193858407594319125295695528878407018119142948319295992975160031532655383087017338525823348512306685665578335308952519093678301844931181220273290308286038736371712.00000000
0.65500000, 0.00500000, 938112502382898760918385022626091433640009963123242803679578863415248015089964781152701962950119190400793215239237090782503625765076739651001043929134284051907256355781849306255670335425237897472456345002979698556888959732447833565999883354112.00000000
0.66500000, 0.00500000, -313449005379654311983410324274570531770114130915929643010324883724056494955392082930829757666009545552555864615492866696565171379762528421545103647221583098032423286280808894991391600808007544320697463530152103441179443316567030559823515090944.00000000
0.67500000, 0.00500000, -198318854029940800348944490381850951997996658911343777140524576870717799955927172840244356791046892447840334068463112520124948643804929951333708253962431843313242060394210261050624195238311642021073384406271026311493527912035683890211139354624.00000000
0.68500000, 0.00500000, 615085270216162639257013273175477192499983646001740616077221971361880378819119661190615303151931852936537534119751261016168182864006718554797838632373086920102153542467467720909451294574526186080675474436624626789060366581084057612815930753024.00000000
0.69500000, 0.00500000, -948998176746816043175740664206817634222117639278443663249518365509887002868704894085404478916598983866322518134684340765492440450474278883201729856044078871726727962284210014858515501906177093598322169977931873615537507116040344383924075495424.00000000
0.70500000, 0.00500000, 1201173169850392654343775802454142426836249453569105576549650299828022537614988111491885990195007376651478862574440978614230841861470531015208747309598420558021517983224037804223278869394640623074420817933766567333875057878230086265092490395648.00000000
0.71500000, 0.00500000, -1368464496544710043176016623959078480009301224334514250508800121535713305314427684665154926995711894313597413282887162692464324602924529939504985129063102012280557356756577356701201784367839132964051014469303810558657125262507843702203640446976.00000000
0.72500000, 0.00500000, 1455031566290182130264192625967746541710125648079805751870746464291954216522152854403338037154838491182849660588165997593406969710532453467966189466860200107535138826646262655477960832721279418567177404864327632386859260033840102356795451768832.00000000
0.73500000, 0.00500000, -1495711396748557920232152159951988184937382766226800270984232148904524917430110645569558571879987606351637388354897498864171329496688672829466176267049470689623404076744847076024546943293517256081962830777671766968673178748985023283415444619264.00000000
0.74500000, 0.00500000, 1518457470507032769657909264534725329448684434332158082755243076753558195642145490572049269460558759637435854177305865839392853195894881435880119908951881574772051323383104852362883123905452257372439493677818508599741686683611912876855394304000.00000000
0.75500000, 0.00500000, -1500429467182977066177152785990043370288863558421311238971628695058544200941495324985292010743828662423958445067221024482749927866595332186491080938097713112994637876719278348411281024854353727114962341695342706824680800066763867080055093985280.00000000
0.76500000, 0.00500000, 1421840580826933301171647294482343717790997996144049094493795459856407629746959230573702126911513628831704723756830142970134180491407032297243036049557032234963470389409859316295366418393342594362418021661134987866900873269202441687009983463424.00000000
0.77500000, 0.00500000, -1299242951639788934313744653157306097381670895782645997995458881420617797680780250313023208914016584982388339267472841613162315629717827969208039569549378715503415072849854072210711488958617565151298503197274129482492956751164782379794197118976.00000000
0.78500000, 0.00500000, 1159963378775463399100710403372608011429802784488433661818805610591207363721337782887844165237728296079158878164549614499634395989711783827758859135075312479326864169228773960498545911690251302946050423831478328676388394708696066504556927778816.00000000
0.79500000, 0.00500000, -1032395128923191230981388773782836099050850277754421939434448639708886604146301723157686403310523534842600414931575430851842736679247748858286972340166054619896560464828102456823414549316384927464159846788166890965946373396968729108316124348416.00000000
0.80500000, 0.00500000, 923975679061942981752828296307041158194571913401045186154015804418110272938643563518146235204336926967131863445930285578485740268796237684591658203198210183142257005373259363528498127018059696751886093580477231744588914128272734161785824739328.00000000
0.81500000, 0.00500000, -816157171561654192544088316123056615866746520259667387145462128724794972594978413975815081542907892618998473742835501463255006234242815861315891831623845875203170178958483006774824491278544145814893075522610983774602693970178861034248029077504.00000000
0.82500000, 0.00500000, 696363264964678522186255085104101209727665952206945498971713179160772501234818493265615739191047384644784228764399495243432274354709709913737843016423500157750423396363985420089702318052987229880576427332880432475333360683328454575488757661696.00000000
0.83500000, 0.00500000, -569163772520899239178681743846115569539846426081665425164295667946821999865203472093196940391425937214146370950284697452965948417432404350585594723018374900054617247147276599392922326517081993662897747630450035878210284044981477567459005300736.00000000
0.84500000, 0.00500000, 445868489986894844838167280300658371011825662144207182311714529396892316057821951152858551432625551032425101180701106294543246324724252262606182983318290388666508718760930435769218388832226597712002696343845690819522960612144303786189641482240.00000000
0.85500000, 0.00500000, -336108674762277598675032035363770576293563338784628923559209722247928281907974205043728795020930262833575006172473303317947866363619687334494811414287629320832833577177183424768757328887169694245910424263737631931416108080117663876020910948352.00000000
0.86500000, 0.00500000, 242185421858959782534372348739414891144008182939558935055052139556184066576435271944297140517067727091601698048010558007721069657097121790929053655457309638589511465379409092098198390558369299295618352204273031619739990846627841040230610108416.00000000
0.87500000, 0.00500000, -161633136617381761885634616066451591754719729588573069852244196431182057916352590933436439591790241194642461307144712043094005041797644292766599284158664071034922233171362558898730080533240007236117911691569852861676675720503038743399247118336.00000000
0.88500000, 0.00500000, 93414835887450539520357941207360112272580168720800018339649039444788361845424286547490303573381948429062517758109550610245860631787938438265336682558813373736410595016317463354987908136770421284125976322534733542879271011868391660027721547776.00000000
0.89500000, 0.00500000, -37583427113360851567932197892246523019387996635561240462632282727620651527271748652702616673417338570326539998636935351043333636626411554599035515266960469945297296921441364492191275353586627424538273162505884936241658715297877664531535101952.00000000
0.90500000, 0.00500000, -6828870102680584113091016230198954869886204851635963797905542057444035915315040650282539210001464645208712893007301968413134235808969186017871629238036502550039140084043790822014221830167377907448250078377760086785188220632293984362286809088.00000000
0.91500000, 0.00500000, 41266931164958874439374955168902107628652466606086723941709389102221521782450294834969285754872337181724431298278468115721393692762659852144578837364507307271790637320964445857706580250147632297806894691679607083470178132195355493532864348160.00000000
0.92500000, 0.00500000, -67213751662020174625192397106031466781127293649517424970793965267305169443698709859543217781315112223632509274183027461151636176086829392310905011029969537516030189320217858429253765431876323441800862643328403155608645908600402905236993212416.00000000
0.93500000, 0.00500000, 86303677462155101456622705169387515016992307191932590988859875074526026737686154734458800448272933567671849937399317383895391584704061785435241333648554211505653188214817542493647956765712088915941369564749324323470141873050971453066519248896.00000000
0.94500000, 0.00500000, -66625115125997206046990038614903723569992357472415584909613251797809645982458457374815419642744020624966309604239673791586951429895379337173169894157492677214436181423574953202302841806313322804734466579288648137786368177158002996769468710912.00000000
0.95500000, 0.00500000, 109695745167634079967448266040538760899643893162102237934056946407305971184033145016136550118714120539324116782486999629854827474907502526421457525088215308064328845231049284299512590797394065352422119199199801625806979860429248346241349189632.00000000
0.96500000, 0.00500000, -115149408530805466801030208067655185264578101544599204975700738963478945127107539687907370532144427212950073420991209782836906233506064137411904361426898261203662489371590663221120131561875948932867666715303539923746899574631665781203064061952.00000000
0.97500000, 0.00500000, 116625955585155691059690292389269959361790606584683944680005449626434636606421808303001453502140082981000349496188134254861792282225628783229456270114613461768494994804434324655194406014803905184202538534268919871662924046707303791162556416000.00000000
0.98500000, 0.00500000, -115332104470151753194340922174093815076962685732813368873736866206775787844721983390033561161684523487875194424876838378874526384175047877193115564336314841212534668670554547839749300024796893210633197453387077810875983757363763955675512700928.00000000
0.99500000, 0.00500000, 112723047005387670277288524801611115964808747619934539818929391237085323590318088730000412449846463461886015778505344728366041058646580688592219881951213047099962664613287792965981323338133547738533274517925474451302987255818738155285379022848.00000000
0.00500000, 0.01500000, 85026826323424333946650381852361621225841743071845384017316212101059404371370616557635764714358474599636320485047016297587839585495530533158213423809890441089895869266231447991990682573469356366362388474970142656355947853453805006174312988672.00000000
0.01500000, 0.01500000, -75804043285541377673352506081553481112298398147470199115542671809835257573049114429809048062993497034393994977735036875795599894866156674918526437694089910427473465782870040942314612531920707520433219610437087482671202010247828074123489181696.00000000
0.02500000, 0.01500000, 70493835050252497093110460162492263504952869760577815349676871641328577213984504220472265913605953603481676197646902769032179380340613621131036914778561156993564252960692554137187578922343059295686880738923274027915454492140400383049437544448.00000000
0.03500000, 0.01500000, -62624541808983259384144507128668630721167460377970071405260299057199595164276252429892086440456908507166873172341408977406467668536167053274142553772273592799072897327094977573551842914949704156090757341061823541310983210271724750561733509120.00000000
0.04500000, 0.01500000, 51557210626272689505445972316357744552020410094845779375585910488601423949362273884528018525006387551959810862422179750483630130816542805800729530465261734045030172827417609733678771677336123502029987591728898470423267167007665877858687909888.00000000
0.05500000, 0.01500000, -42161623277754441548813828907998005657701527521584353617372961259345841625627751448370420075055633214434799212384812028246821251765789966390979590653792459040110426459416238740532282800002040633133492582222500459386563082614776536562113970176.00000000
0.06500000, 0.01500000, 35330854594746639346155721416954349434731230838057168525484866738266462099139257977883043060211202067978420653210914691762868198636461582747881124537903754337150410015271723009755497960890868232530232150861608479953002147087946383599494758400.00000000