TITLE = "Linear advection equation"
VARIABLES = "x", "y", "sol"
ZONE STRANDID=1, SOLUTIONTIME=0, I=100, J=100, DATAPACKING=POINT
0.00500000, 0.00500000, 0.00098664
0.01500000, 0.00500000, 0.00295601
0.02500000, 0.00500000, 0.00491373
0.03500000, 0.00500000, 0.00685204
0.04500000, 0.00500000, 0.00876332
0.05500000, 0.00500000, 0.01064002
0.06500000, 0.00500000, 0.01247472
0.07500000, 0.00500000, 0.01426019
0.08500000, 0.00500000, 0.01598938
0.09500000, 0.00500000, 0.01765547
0.10500000, 0.00500000, 0.01925188
0.11500000, 0.00500000, 0.02077231
0.12500000, 0.00500000, 0.02221076
0.13500000, 0.00500000, 0.02356156
0.14500000, 0.00500000, 0.02481937
0.15500000, 0.00500000, 0.02597923
0.16500000, 0.00500000, 0.02703656
0.17500000, 0.00500000, 0.02798719
0.18500000, 0.00500000, 0.02882737
0.19500000, 0.00500000, 0.02955378
0.20500000, 0.00500000, 0.03016355
0.21500000, 0.00500000, 0.03065429
0.22500000, 0.00500000, 0.03102404
0.23500000, 0.00500000, 0.03127136
0.24500000, 0.00500000, 0.03139526
0.25500000, 0.00500000, 0.03139526
0.26500000, 0.00500000, 0.03127136
0.27500000, 0.00500000, 0.03102404
0.28500000, 0.00500000, 0.03065429
0.29500000, 0.00500000, 0.03016355
0.30500000, 0.00500000, 0.02955378
0.31500000, 0.00500000, 0.02882737
0.32500000, 0.00500000, 0.02798719
0.33500000, 0.00500000, 0.02703656
0.34500000, 0.00500000, 0.02597923
0.35500000, 0.00500000, 0.02481937
0.36500000, 0.00500000, 0.02356156
0.37500000, 0.00500000, 0.02221076
0.38500000, 0.00500000, 0.02077231
0.39500000, 0.00500000, 0.01925188
0.40500000, 0.00500000, 0.01765547
0.41500000, 0.00500000, 0.01598938
0.42500000, 0.00500000, 0.01426019
0.43500000, 0.00500000, 0.01247472
0.44500000, 0.00500000, 0.01064002
0.45500000, 0.00500000, 0.00876332
0.46500000, 0.00500000, 0.00685204
0.47500000, 0.00500000, 0.00491373
0.48500000, 0.00500000, 0.00295601
0.49500000, 0.00500000, 0.00098664
0.50500000, 0.00500000, -0.00098664
0.51500000, 0.00500000, -0.00295601
0.52500000, 0.00500000, -0.00491373
0.53500000, 0.00500000, -0.00685204
0.54500000, 0.00500000, -0.00876332
0.55500000, 0.00500000, -0.01064002
0.56500000, 0.00500000, -0.01247472
0.57500000, 0.00500000, -0.01426019
0.58500000, 0.00500000, -0.01598938
0.59500000, 0.00500000, -0.01765547
0.60500000, 0.00500000, -0.01925188
0.61500000, 0.00500000, -0.02077231
0.62500000, 0.00500000, -0.02221076
0.63500000, 0.00500000, -0.02356156
0.64500000, 0.00500000, -0.02481937
0.65500000, 0.00500000, -0.02597923
0.66500000, 0.00500000, -0.02703656
0.67500000, 0.00500000, -0.02798719
0.68500000, 0.00500000, -0.02882737
0.69500000, 0.00500000, -0.02955378
0.70500000, 0.00500000, -0.03016355
0.71500000, 0.00500000, -0.03065429
0.72500000, 0.00500000, -0.03102404
0.73500000, 0.00500000, -0.03127136
0.74500000, 0.00500000, -0.03139526
0.75500000, 0.00500000, -0.03139526
0.76500000, 0.00500000, -0.03127136
0.77500000, 0.00500000, -0.03102404
0.78500000, 0.00500000, -0.03065429
0.79500000, 0.00500000, -0.03016355
0.80500000, 0.00500000, -0.02955378
0.81500000, 0.00500000, -0.02882737
0.82500000, 0.00500000, -0.02798719
0.83500000, 0.00500000, -0.02703656
0.84500000, 0.00500000, -0.02597923
0.85500000, 0.00500000, -0.02481937
0.86500000, 0.00500000, -0.02356156
0.87500000, 0.00500000, -0.02221076
0.88500000, 0.00500000, -0.02077231
0.89500000, 0.00500000, -0.01925188
0.90500000, 0.00500000, -0.01765547
0.91500000, 0.00500000, -0.01598938
0.92500000, 0.00500000, -0.01426019
0.93500000, 0.00500000, -0.01247472
0.94500000, 0.00500000, -0.01064002
0.95500000, 0.00500000, -0.00876332
0.96500000, 0.00500000, -0.00685204
0.97500000, 0.00500000, -0.00491373
0.98500000, 0.00500000, -0.00295601
0.99500000, 0.00500000, -0.00098664
0.00500000, 0.01500000, 0.00295601
0.01500000, 0.01500000, 0.00885637
0.02500000, 0.01500000, 0.01472178
0.03500000, 0.01500000, 0.02052909
0.04500000, 0.01500000, 0.02625538
0.05500000, 0.01500000, 0.03187805
0.06500000, 0.01500000, 0.03737492
0.07500000, 0.01500000, 0.04272428
0.08500000, 0.01500000, 0.04790503
0.09500000, 0.01500000, 0.05289672
0.10500000, 0.01500000, 0.05767965
0.11500000, 0.01500000, 0.06223494
0.12500000, 0.01500000, 0.06654463
0.13500000, 0.01500000, 0.07059169
0.14500000, 0.01500000, 0.07436016
0.15500000, 0.01500000, 0.07783516
0.16500000, 0.01500000, 0.08100298
0.17500000, 0.01500000, 0.08385112
0.18500000, 0.01500000, 0.08636834
0.19500000, 0.01500000, 0.08854470
0.20500000, 0.01500000, 0.09037162
0.21500000, 0.01500000, 0.09184188
0.22500000, 0.01500000, 0.09294968
0.23500000, 0.01500000, 0.09369066
0.24500000, 0.01500000, 0.09406188
0.25500000, 0.01500000, 0.09406188
0.26500000, 0.01500000, 0.09369066
0.27500000, 0.01500000, 0.09294968
0.28500000, 0.01500000, 0.09184188
0.29500000, 0.01500000, 0.09037162
0.30500000, 0.01500000, 0.08854470
0.31500000, 0.01500000, 0.08636834
0.32500000, 0.01500000, 0.08385112
0.33500000, 0.01500000, 0.08100298
0.34500000, 0.01500000, 0.07783516
0.35500000, 0.01500000, 0.07436016
0.36500000, 0.01500000, 0.07059169
0.37500000, 0.01500000, 0.06654463
0.38500000, 0.01500000, 0.06223494
0.39500000, 0.01500000, 0.05767965
0.40500000, 0.01500000, 0.05289672
0.41500000, 0.01500000, 0.04790503
0.42500000, 0.01500000, 0.04272428
0.43500000, 0.01500000, 0.03737492
0.44500000, 0.01500000, 0.03187805
0.45500000, 0.01500000, 0.02625538
0.46500000, 0.01500000, 0.02052909
0.47500000, 0.01500000, 0.01472178
0.48500000, 0.01500000, 0.00885637
0.49500000, 0.01500000, 0.00295601
0.50500000, 0.01500000, -0.00295601
0.51500000, 0.01500000, -0.00885637
0.52500000, 0.01500000, -0.01472178
0.53500000, 0.01500000, -0.02052909
0.54500000, 0.01500000, -0.02625538
0.55500000, 0.01500000, -0.03187805
0.56500000, 0.01500000, -0.03737492
0.57500000, 0.01500000, -0.04272428
0.58500000, 0.01500000, -0.04790503
0.59500000, 0.01500000, -0.05289672
0.60500000, 0.01500000, -0.05767965
0.61500000, 0.01500000, -0.06223494
0.62500000, 0.01500000, -0.06654463
0.63500000, 0.01500000, -0.07059169
0.64500000, 0.01500000, -0.07436016
0.65500000, 0.01500000, -0.07783516
0.66500000, 0.01500000, -0.08100298
0.67500000, 0.01500000, -0.08385112
0.68500000, 0.01500000, -0.08636834
0.69500000, 0.01500000, -0.08854470
0.70500000, 0.01500000, -0.09037162
0.71500000, 0.01500000, -0.09184188
0.72500000, 0.01500000, -0.09294968
0.73500000, 0.01500000, -0.09369066
0.74500000, 0.01500000, -0.09406188
0.75500000, 0.01500000, -0.09406188
0.76500000, 0.01500000, -0.09369066
0.77500000, 0.01500000, -0.09294968
0.78500000, 0.01500000, -0.09184188
0.79500000, 0.01500000, -0.09037162
0.80500000, 0.01500000, -0.08854470
0.81500000, 0.01500000, -0.08636834
0.82500000, 0.01500000, -0.08385112
0.83500000, 0.01500000, -0.08100298
0.84500000, 0.01500000, -0.07783516
0.85500000, 0.01500000, -0.07436016
0.86500000, 0.01500000, -0.07059169
0.87500000, 0.01500000, -0.06654463
0.88500000, 0.01500000, -0.06223494
0.89500000, 0.01500000, -0.05767965
0.90500000, 0.01500000, -0.05289672
0.91500000, 0.01500000, -0.04790503
0.92500000, 0.01500000, -0.04272428
0.93500000, 0.01500000, -0.03737492
0.94500000, 0.01500000, -0.03187805
0.95500000, 0.01500000, -0.02625538
0.96500000, 0.01500000, -0.02052909
0.97500000, 0.01500000, -0.01472178
0.98500000, 0.01500000, -0.00885637
0.99500000, 0.01500000, -0.00295601
0.00500000, 0.02500000, 0.00491373
0.01500000, 0.02500000, 0.01472178
0.02500000, 0.02500000, 0.02447174
0.03500000, 0.02500000, 0.03412512
0.04500000, 0.02500000, 0.04364382
0.05500000, 0.02500000, 0.05299029
0.06500000, 0.02500000, 0.06212762
0.07500000, 0.02500000, 0.07101976
0.08500000, 0.02500000, 0.07963162
0.09500000, 0.02500000, 0.08792921
0.10500000, 0.02500000, 0.09587979
0.11500000, 0.02500000, 0.10345197
0.12500000, 0.02500000, 0.11061587
0.13500000, 0.02500000, 0.11734322
0.14500000, 0.02500000, 0.12360748
0.15500000, 0.02500000, 0.12938391
0.16500000, 0.02500000, 0.13464972
0.17500000, 0.02500000, 0.13938413
0.18500000, 0.02500000, 0.14356845
0.19500000, 0.02500000, 0.14718618
0.20500000, 0.02500000, 0.15022303
0.21500000, 0.02500000, 0.15266702
0.22500000, 0.02500000, 0.15450850
0.23500000, 0.02500000, 0.15574020
0.24500000, 0.02500000, 0.15635727
0.25500000, 0.02500000, 0.15635727
0.26500000, 0.02500000, 0.15574020
0.27500000, 0.02500000, 0.15450850
0.28500000, 0.02500000, 0.15266702
0.29500000, 0.02500000, 0.15022303
0.30500000, 0.02500000, 0.14718618
0.31500000, 0.02500000, 0.14356845
0.32500000, 0.02500000, 0.13938413
0.33500000, 0.02500000, 0.13464972
0.34500000, 0.02500000, 0.12938391
0.35500000, 0.02500000, 0.12360748
0.36500000, 0.02500000, 0.11734322
0.37500000, 0.02500000, 0.11061587
0.38500000, 0.02500000, 0.10345197
0.39500000, 0.02500000, 0.09587979
0.40500000, 0.02500000, 0.08792921
0.41500000, 0.02500000, 0.07963162
0.42500000, 0.02500000, 0.07101976
0.43500000, 0.02500000, 0.06212762
0.44500000, 0.02500000, 0.05299029
0.45500000, 0.02500000, 0.04364382
0.46500000, 0.02500000, 0.03412512
0.47500000, 0.02500000, 0.02447174
0.48500000, 0.02500000, 0.01472178
0.49500000, 0.02500000, 0.00491373
0.50500000, 0.02500000, -0.00491373
0.51500000, 0.02500000, -0.01472178
0.52500000, 0.02500000, -0.02447174
0.53500000, 0.02500000, -0.03412512
0.54500000, 0.02500000, -0.04364382
0.55500000, 0.02500000, -0.05299029
0.56500000, 0.02500000, -0.06212762
0.57500000, 0.02500000, -0.07101976
0.58500000, 0.02500000, -0.07963162
0.59500000, 0.02500000, -0.08792921
0.60500000, 0.02500000, -0.09587979
0.61500000, 0.02500000, -0.10345197
0.62500000, 0.02500000, -0.11061587
0.63500000, 0.02500000, -0.11734322
0.64500000, 0.02500000, -0.12360748
0.65500000, 0.02500000, -0.12938391
0.66500000, 0.02500000, -0.13464972
0.67500000, 0.02500000, -0.13938413
0.68500000, 0.02500000, -0.14356845
0.69500000, 0.02500000, -0.14718618
0.70500000, 0.02500000, -0.15022303
0.71500000, 0.02500000, -0.15266702
0.72500000, 0.02500000, -0.15450850
0.73500000, 0.02500000, -0.15574020
0.74500000, 0.02500000, -0.15635727
0.75500000, 0.02500000, -0.15635727
0.76500000, 0.02500000, -0.15574020
0.77500000, 0.02500000, -0.15450850
0.78500000, 0.02500000, -0.15266702
0.79500000, 0.02500000, -0.15022303
0.80500000, 0.02500000, -0.14718618
0.81500000, 0.02500000, -0.14356845
0.82500000, 0.02500000, -0.13938413
0.83500000, 0.02500000, -0.13464972
0.84500000, 0.02500000, -0.12938391
0.85500000, 0.02500000, -0.12360748
0.86500000, 0.02500000, -0.11734322
0.87500000, 0.02500000, -0.11061587
0.88500000, 0.02500000, -0.10345197
0.89500000, 0.02500000, -0.09587979
0.90500000, 0.02500000, -0.08792921
0.91500000, 0.02500000, -0.07963162
0.92500000, 0.02500000, -0.07101976
0.93500000, 0.02500000, -0.06212762
0.94500000, 0.02500000, -0.05299029
0.95500000, 0.02500000, -0.04364382
0.96500000, 0.02500000, -0.03412512
0.97500000, 0.02500000, -0.02447174
0.98500000, 0.02500000, -0.01472178
0.99500000, 0.02500000, -0.00491373
0.00500000, 0.03500000, 0.00685204
0.01500000, 0.03500000, 0.02052909
0.02500000, 0.03500000, 0.03412512
0.03500000, 0.03500000, 0.04758647
0.04500000, 0.03500000, 0.06086002
0.05500000, 0.03500000, 0.07389339
0.06500000, 0.03500000, 0.08663513
0.07500000, 0.03500000, 0.09903496
0.08500000, 0.03500000, 0.11104394
0.09500000, 0.03500000, 0.12261469
0.10500000, 0.03500000, 0.13370153
0.11500000, 0.03500000, 0.14426071
0.12500000, 0.03500000, 0.15425057
0.13500000, 0.03500000, 0.16363166
0.14500000, 0.03500000, 0.17236698
0.15500000, 0.03500000, 0.18042204
0.16500000, 0.03500000, 0.18776506
0.17500000, 0.03500000, 0.19436705
0.18500000, 0.03500000, 0.20020197
0.19500000, 0.03500000, 0.20524678
0.20500000, 0.03500000, 0.20948158
0.21500000, 0.03500000, 0.21288965
0.22500000, 0.03500000, 0.21545754
0.23500000, 0.03500000, 0.21717511
0.24500000, 0.03500000, 0.21803560
0.25500000, 0.03500000, 0.21803560
0.26500000, 0.03500000, 0.21717511
0.27500000, 0.03500000, 0.21545754
0.28500000, 0.03500000, 0.21288965
0.29500000, 0.03500000, 0.20948158
0.30500000, 0.03500000, 0.20524678
0.31500000, 0.03500000, 0.20020197
0.32500000, 0.03500000, 0.19436705
0.33500000, 0.03500000, 0.18776506
0.34500000, 0.03500000, 0.18042204
0.35500000, 0.03500000, 0.17236698
0.36500000, 0.03500000, 0.16363166
0.37500000, 0.03500000, 0.15425057
0.38500000, 0.03500000, 0.14426071
0.39500000, 0.03500000, 0.13370153
0.40500000, 0.03500000, 0.12261469
0.41500000, 0.03500000, 0.11104394
0.42500000, 0.03500000, 0.09903496
0.43500000, 0.03500000, 0.08663513
0.44500000, 0.03500000, 0.07389339
0.45500000, 0.03500000, 0.06086002
0.46500000, 0.03500000, 0.04758647
0.47500000, 0.03500000, 0.03412512
0.48500000, 0.03500000, 0.02052909
0.49500000, 0.03500000, 0.00685204
0.50500000, 0.03500000, -0.00685204
0.51500000, 0.03500000, -0.02052909
0.52500000, 0.03500000, -0.03412512
0.53500000, 0.03500000, -0.04758647
0.54500000, 0.03500000, -0.06086002
0.55500000, 0.03500000, -0.07389339
0.56500000, 0.03500000, -0.08663513
0.57500000, 0.03500000, -0.09903496
0.58500000, 0.03500000, -0.11104394
0.59500000, 0.03500000, -0.12261469
0.60500000, 0.03500000, -0.13370153
0.61500000, 0.03500000, -0.14426071
0.62500000, 0.03500000, -0.15425057
0.63500000, 0.03500000, -0.16363166
0.64500000, 0.03500000, -0.17236698
0.65500000, 0.03500000, -0.18042204
0.66500000, 0.03500000, -0.18776506
0.67500000, 0.03500000, -0.19436705
0.68500000, 0.03500000, -0.20020197
0.69500000, 0.03500000, -0.20524678
0.70500000, 0.03500000, -0.20948158
0.71500000, 0.03500000, -0.21288965
0.72500000, 0.03500000, -0.21545754
0.73500000, 0.03500000, -0.21717511
0.74500000, 0.03500000, -0.21803560
0.75500000, 0.03500000, -0.21803560
0.76500000, 0.03500000, -0.21717511
0.77500000, 0.03500000, -0.21545754
0.78500000, 0.03500000, -0.21288965
0.79500000, 0.03500000, -0.20948158
0.80500000, 0.03500000, -0.20524678
0.81500000, 0.03500000, -0.20020197
0.82500000, 0.03500000, -0.19436705
0.83500000, 0.03500000, -0.18776506
0.84500000, 0.03500000, -0.18042204
0.85500000, 0.03500000, -0.17236698
0.86500000, 0.03500000, -0.16363166
0.87500000, 0.03500000, -0.15425057
0.88500000, 0.03500000, -0.14426071
0.89500000, 0.03500000, -0.13370153
0.90500000, 0.03500000, -0.12261469
0.91500000, 0.03500000, -0.11104394
0.92500000, 0.03500000, -0.09903496
0.93500000, 0.03500000, -0.08663513
0.94500000, 0.03500000, -0.07389339
0.95500000, 0.03500000, -0.06086002
0.96500000, 0.03500000, -0.04758647
0.97500000, 0.03500000, -0.03412512
0.98500000, 0.03500000, -0.02052909
0.99500000, 0.03500000, -0.00685204
0.00500000, 0.04500000, 0.00876332
0.01500000, 0.04500000, 0.02625538
0.02500000, 0.04500000, 0.04364382
0.03500000, 0.04500000, 0.06086002
0.04500000, 0.04500000, 0.07783604
0.05500000, 0.04500000, 0.09450487
0.06500000, 0.04500000, 0.11080073
0.07500000, 0.04500000, 0.12665931
0.08500000, 0.04500000, 0.14201803
0.09500000, 0.04500000, 0.15681626
0.10500000, 0.04500000, 0.17099562
0.11500000, 0.04500000, 0.18450013
0.12500000, 0.04500000, 0.19727650
0.13500000, 0.04500000, 0.20927432
0.14500000, 0.04500000, 0.22044622
0.15500000, 0.04500000, 0.23074812
0.16500000, 0.04500000, 0.24013937
0.17500000, 0.04500000, 0.24858290
0.18500000, 0.04500000, 0.25604538
0.19500000, 0.04500000, 0.26249737
0.20500000, 0.04500000, 0.26791340
0.21500000, 0.04500000, 0.27227210
0.22500000, 0.04500000, 0.27555626
0.23500000, 0.04500000, 0.27775293
0.24500000, 0.04500000, 0.27885344
0.25500000, 0.04500000, 0.27885344
0.26500000, 0.04500000, 0.27775293
0.27500000, 0.04500000, 0.27555626
0.28500000, 0.04500000, 0.27227210
0.29500000, 0.04500000, 0.26791340
0.30500000, 0.04500000, 0.26249737
0.31500000, 0.04500000, 0.25604538
0.32500000, 0.04500000, 0.24858290
0.33500000, 0.04500000, 0.24013937
0.34500000, 0.04500000, 0.23074812
0.35500000, 0.04500000, 0.22044622
0.36500000, 0.04500000, 0.20927432
0.37500000, 0.04500000, 0.19727650
0.38500000, 0.04500000, 0.18450013
0.39500000, 0.04500000, 0.17099562
0.40500000, 0.04500000, 0.15681626
0.41500000, 0.04500000, 0.14201803
0.42500000, 0.04500000, 0.12665931
0.43500000, 0.04500000, 0.11080073
0.44500000, 0.04500000, 0.09450487
0.45500000, 0.04500000, 0.07783604
0.46500000, 0.04500000, 0.06086002
0.47500000, 0.04500000, 0.04364382
0.48500000, 0.04500000, 0.02625538
0.49500000, 0.04500000, 0.00876332
0.50500000, 0.04500000, -0.00876332
0.51500000, 0.04500000, -0.02625538
0.52500000, 0.04500000, -0.04364382
0.53500000, 0.04500000, -0.06086002
0.54500000, 0.04500000, -0.07783604
0.55500000, 0.04500000, -0.09450487
0.56500000, 0.04500000, -0.11080073
0.57500000, 0.04500000, -0.12665931
0.58500000, 0.04500000, -0.14201803
0.59500000, 0.04500000, -0.15681626
0.60500000, 0.04500000, -0.17099562
0.61500000, 0.04500000, -0.18450013
0.62500000, 0.04500000, -0.19727650
0.63500000, 0.04500000, -0.20927432
0.64500000, 0.04500000, -0.22044622
0.65500000, 0.04500000, -0.23074812
0.66500000, 0.04500000, -0.24013937
0.67500000, 0.04500000, -0.24858290
0.68500000, 0.04500000, -0.25604538
0.69500000, 0.04500000, -0.26249737
0.70500000, 0.04500000, -0.26791340
0.71500000, 0.04500000, -0.27227210
0.72500000, 0.04500000, -0.27555626
0.73500000, 0.04500000, -0.27775293
0.74500000, 0.04500000, -0.27885344
0.75500000, 0.04500000, -0.27885344
0.76500000, 0.04500000, -0.27775293
0.77500000, 0.04500000, -0.27555626
0.78500000, 0.04500000, -0.27227210
0.79500000, 0.04500000, -0.26791340
0.80500000, 0.04500000, -0.26249737
0.81500000, 0.04500000, -0.25604538
0.82500000, 0.04500000, -0.24858290
0.83500000, 0.04500000, -0.24013937
0.84500000, 0.04500000, -0.23074812
0.85500000, 0.04500000, -0.22044622
0.86500000, 0.04500000, -0.20927432
0.87500000, 0.04500000, -0.19727650
0.88500000, 0.04500000, -0.18450013
0.89500000, 0.04500000, -0.17099562
0.90500000, 0.04500000, -0.15681626
0.91500000, 0.04500000, -0.14201803
0.92500000, 0.04500000, -0.12665931
0.93500000, 0.04500000, -0.11080073
0.94500000, 0.04500000, -0.09450487
0.95500000, 0.04500000, -0.07783604
0.96500000, 0.04500000, -0.06086002
0.97500000, 0.04500000, -0.04364382
0.98500000, 0.04500000, -0.02625538
0.99500000, 0.04500000, -0.00876332
0.00500000, 0.05500000, 0.01064002
0.01500000, 0.05500000, 0.03187805
0.02500000, 0.05500000, 0.05299029
0.03500000, 0.05500000, 0.07389339
0.04500000, 0.05500000, 0.09450487
0.05500000, 0.05500000, 0.11474338
0.06500000, 0.05500000, 0.13452905
0.07500000, 0.05500000, 0.15378380
0.08500000, 0.05500000, 0.17243163
0.09500000, 0.05500000, 0.19039895
0.10500000, 0.05500000, 0.20761486
0.11500000, 0.05500000, 0.22401141
0.12500000, 0.05500000, 0.23952388
0.13500000, 0.05500000, 0.25409106
0.14500000, 0.05500000, 0.26765547
0.15500000, 0.05500000, 0.28016355
0.16500000, 0.05500000, 0.29156596
0.17500000, 0.05500000, 0.30181770
0.18500000, 0.05500000, 0.31087829
0.19500000, 0.05500000, 0.31871199
0.20500000, 0.05500000, 0.32528789
0.21500000, 0.05500000, 0.33058001
0.22500000, 0.05500000, 0.33456749
0.23500000, 0.05500000, 0.33723459
0.24500000, 0.05500000, 0.33857077
0.25500000, 0.05500000, 0.33857077
0.26500000, 0.05500000, 0.33723459
0.27500000, 0.05500000, 0.33456749
0.28500000, 0.05500000, 0.33058001
0.29500000, 0.05500000, 0.32528789
0.30500000, 0.05500000, 0.31871199
0.31500000, 0.05500000, 0.31087829
0.32500000, 0.05500000, 0.30181770
0.33500000, 0.05500000, 0.29156596
0.34500000, 0.05500000, 0.28016355
0.35500000, 0.05500000, 0.26765547
0.36500000, 0.05500000, 0.25409106
0.37500000, 0.05500000, 0.23952388
0.38500000, 0.05500000, 0.22401141
0.39500000, 0.05500000, 0.20761486
0.40500000, 0.05500000, 0.19039895
0.41500000, 0.05500000, 0.17243163
0.42500000, 0.05500000, 0.15378380
0.43500000, 0.05500000, 0.13452905
0.44500000, 0.05500000, 0.11474338
0.45500000, 0.05500000, 0.09450487
0.46500000, 0.05500000, 0.07389339
0.47500000, 0.05500000, 0.05299029
0.48500000, 0.05500000, 0.03187805
0.49500000, 0.05500000, 0.01064002
0.50500000, 0.05500000, -0.01064002
0.51500000, 0.05500000, -0.03187805
0.52500000, 0.05500000, -0.05299029
0.53500000, 0.05500000, -0.07389339
0.54500000, 0.05500000, -0.09450487
0.55500000, 0.05500000, -0.11474338
0.56500000, 0.05500000, -0.13452905
0.57500000, 0.05500000, -0.15378380
0.58500000, 0.05500000, -0.17243163
0.59500000, 0.05500000, -0.19039895
0.60500000, 0.05500000, -0.20761486
0.61500000, 0.05500000, -0.22401141
0.62500000, 0.05500000, -0.23952388
0.63500000, 0.05500000, -0.25409106
0.64500000, 0.05500000, -0.26765547
0.65500000, 0.05500000, -0.28016355
0.66500000, 0.05500000, -0.29156596
0.67500000, 0.05500000, -0.30181770
0.68500000, 0.05500000, -0.31087829
0.69500000, 0.05500000, -0.31871199
0.70500000, 0.05500000, -0.32528789
0.71500000, 0.05500000, -0.33058001
0.72500000, 0.05500000, -0.33456749
0.73500000, 0.05500000, -0.33723459
0.74500000, 0.05500000, -0.33857077
0.75500000, 0.05500000, -0.33857077
0.76500000, 0.05500000, -0.33723459
0.77500000, 0.05500000, -0.33456749
0.78500000, 0.05500000, -0.33058001
0.79500000, 0.05500000, -0.32528789
0.80500000, 0.05500000, -0.31871199
0.81500000, 0.05500000, -0.31087829
0.82500000, 0.05500000, -0.30181770
0.83500000, 0.05500000, -0.29156596
0.84500000, 0.05500000, -0.28016355
0.85500000, 0.05500000, -0.26765547
0.86500000, 0.05500000, -0.25409106
0.87500000, 0.05500000, -0.23952388
0.88500000, 0.05500000, -0.22401141
0.89500000, 0.05500000, -0.20761486
0.90500000, 0.05500000, -0.19039895
0.91500000, 0.05500000, -0.17243163
0.92500000, 0.05500000, -0.15378380
0.93500000, 0.05500000, -0.13452905
0.94500000, 0.05500000, -0.11474338
0.95500000, 0.05500000, -0.09450487
0.96500000, 0.05500000, -0.07389339
0.97500000, 0.05500000, -0.05299029
0.98500000, 0.05500000, -0.03187805
0.99500000, 0.05500000, -0.01064002
0.00500000, 0.06500000, 0.01247472
0.01500000, 0.06500000, 0.03737492
0.02500000, 0.06500000, 0.06212762
0.03500000, 0.06500000, 0.08663513
0.04500000, 0.06500000, 0.11080073
0.05500000, 0.06500000, 0.13452905
0.06500000, 0.06500000, 0.15772645
0.07500000, 0.06500000, 0.18030137
0.08500000, 0.06500000, 0.20216472
0.09500000, 0.06500000, 0.22323023
0.10500000, 0.06500000, 0.24341474
0.11500000, 0.06500000, 0.26263861
0.12500000, 0.06500000, 0.28082597
0.13500000, 0.06500000, 0.29790503
0.14500000, 0.06500000, 0.31380840
0.15500000, 0.06500000, 0.32847331
0.16500000, 0.06500000, 0.34184188
0.17500000, 0.06500000, 0.35386136
0.18500000, 0.06500000, 0.36448431
0.19500000, 0.06500000, 0.37366881
0.20500000, 0.06500000, 0.38137861
0.21500000, 0.06500000, 0.38758328
0.22500000, 0.06500000, 0.39225834
0.23500000, 0.06500000, 0.39538533
0.24500000, 0.06500000, 0.39695192
0.25500000, 0.06500000, 0.39695192
0.26500000, 0.06500000, 0.39538533
0.27500000, 0.06500000, 0.39225834
0.28500000, 0.06500000, 0.38758328
0.29500000, 0.06500000, 0.38137861
0.30500000, 0.06500000, 0.37366881
0.31500000, 0.06500000, 0.36448431
0.32500000, 0.06500000, 0.35386136
0.33500000, 0.06500000, 0.34184188
0.34500000, 0.06500000, 0.32847331
0.35500000, 0.06500000, 0.31380840
0.36500000, 0.06500000, 0.29790503
0.37500000, 0.06500000, 0.28082597
0.38500000, 0.06500000, 0.26263861
0.39500000, 0.06500000, 0.24341474
0.40500000, 0.06500000, 0.22323023
0.41500000, 0.06500000, 0.20216472
0.42500000, 0.06500000, 0.18030137
0.43500000, 0.06500000, 0.15772645
0.44500000, 0.06500000, 0.13452905
0.45500000, 0.06500000, 0.11080073
0.46500000, 0.06500000, 0.08663513
0.47500000, 0.06500000, 0.06212762
0.48500000, 0.06500000, 0.03737492
0.49500000, 0.06500000, 0.01247472
0.50500000, 0.06500000, -0.01247472
0.51500000, 0.06500000, -0.03737492
0.52500000, 0.06500000, -0.06212762
0.53500000, 0.06500000, -0.08663513
0.54500000, 0.06500000, -0.11080073
0.55500000, 0.06500000, -0.13452905
0.56500000, 0.06500000, -0.15772645
0.57500000, 0.06500000, -0.18030137
0.58500000, 0.06500000, -0.20216472
0.59500000, 0.06500000, -0.22323023
0.60500000, 0.06500000, -0.24341474
0.61500000, 0.06500000, -0.26263861
0.62500000, 0.06500000, -0.28082597
0.63500000, 0.06500000, -0.29790503
0.64500000, 0.06500000, -0.31380840
0.65500000, 0.06500000, -0.32847331
0.66500000, 0.06500000, -0.34184188
0.67500000, 0.06500000, -0.35386136
0.68500000, 0.06500000, -0.36448431
0.69500000, 0.06500000, -0.37366881
0.70500000, 0.06500000, -0.38137861
0.71500000, 0.06500000, -0.38758328
0.72500000, 0.06500000, -0.39225834
0.73500000, 0.06500000, -0.39538533
0.74500000, 0.06500000, -0.39695192
0.75500000, 0.06500000, -0.39695192
0.76500000, 0.06500000, -0.39538533
0.77500000, 0.06500000, -0.39225834
0.78500000, 0.06500000, -0.38758328
0.79500000, 0.06500000, -0.38137861
0.80500000, 0.06500000, -0.37366881
0.81500000, 0.06500000, -0.36448431
0.82500000, 0.06500000, -0.35386136
0.83500000, 0.06500000, -0.34184188
0.84500000, 0.06500000, -0.32847331
0.85500000, 0.06500000, -0.31380840
0.86500000, 0.06500000, -0.29790503
0.87500000, 0.06500000, -0.28082597
0.88500000, 0.06500000, -0.26263861
0.89500000, 0.06500000, -0.24341474
0.90500000, 0.06500000, -0.22323023
0.91500000, 0.06500000, -0.20216472
0.92500000, 0.06500000, -0.18030137
0.93500000, 0.06500000, -0.15772645
0.94500000, 0.06500000, -0.13452905
0.95500000, 0.06500000, -0.11080073
0.96500000, 0.06500000, -0.08663513
0.97500000, 0.06500000, -0.06212762
0.98500000, 0.06500000, -0.03737492
0.99500000, 0.06500000, -0.01247472
0.00500000, 0.07500000, 0.01426019
0.01500000, 0.07500000, 0.04272428
0.02500000, 0.07500000, 0.07101976
0.03500000, 0.07500000, 0.09903496
0.04500000, 0.07500000, 0.12665931
0.05500000, 0.07500000, 0.15378380
0.06500000, 0.07500000, 0.18030137
0.07500000, 0.07500000, 0.20610737
0.08500000, 0.07500000, 0.23109997
0.09500000, 0.07500000, 0.25518051
0.10500000, 0.07500000, 0.27825398
0.11500000, 0.07500000, 0.30022930
0.12500000, 0.07500000, 0.32101976
0.13500000, 0.07500000, 0.34054330
0.14500000, 0.07500000, 0.35872287
0.15500000, 0.07500000, 0.37548672
0.16500000, 0.07500000, 0.39076870
0.17500000, 0.07500000, 0.40450850
0.18500000, 0.07500000, 0.41665188
0.19500000, 0.07500000, 0.42715093
0.20500000, 0.07500000, 0.43596421
0.21500000, 0.07500000, 0.44305694
0.22500000, 0.07500000, 0.44840112
0.23500000, 0.07500000, 0.45197567
0.24500000, 0.07500000, 0.45376648
0.25500000, 0.07500000, 0.45376648
0.26500000, 0.07500000, 0.45197567
0.27500000, 0.07500000, 0.44840112
0.28500000, 0.07500000, 0.44305694
0.29500000, 0.07500000, 0.43596421
0.30500000, 0.07500000, 0.42715093
0.31500000, 0.07500000, 0.41665188
0.32500000, 0.07500000, 0.40450850
0.33500000, 0.07500000, 0.39076870
0.34500000, 0.07500000, 0.37548672
0.35500000, 0.07500000, 0.35872287
0.36500000, 0.07500000, 0.34054330
0.37500000, 0.07500000, 0.32101976
0.38500000, 0.07500000, 0.30022930
0.39500000, 0.07500000, 0.27825398
0.40500000, 0.07500000, 0.25518051
0.41500000, 0.07500000, 0.23109997
0.42500000, 0.07500000, 0.20610737
0.43500000, 0.07500000, 0.18030137
0.44500000, 0.07500000, 0.15378380
0.45500000, 0.07500000, 0.12665931
0.46500000, 0.07500000, 0.09903496
0.47500000, 0.07500000, 0.07101976
0.48500000, 0.07500000, 0.04272428
0.49500000, 0.07500000, 0.01426019
0.50500000, 0.07500000, -0.01426019
0.51500000, 0.07500000, -0.04272428
0.52500000, 0.07500000, -0.07101976
0.53500000, 0.07500000, -0.09903496
0.54500000, 0.07500000, -0.12665931
0.55500000, 0.07500000, -0.15378380
0.56500000, 0.07500000, -0.18030137
0.57500000, 0.07500000, -0.20610737
0.58500000, 0.07500000, -0.23109997
0.59500000, 0.07500000, -0.25518051
0.60500000, 0.07500000, -0.27825398
0.61500000, 0.07500000, -0.30022930
0.62500000, 0.07500000, -0.32101976
0.63500000, 0.07500000, -0.34054330
0.64500000, 0.07500000, -0.35872287
0.65500000, 0.07500000, -0.37548672
0.66500000, 0.07500000, -0.39076870
0.67500000, 0.07500000, -0.40450850
0.68500000, 0.07500000, -0.41665188
0.69500000, 0.07500000, -0.42715093
0.70500000, 0.07500000, -0.43596421
0.71500000, 0.07500000, -0.44305694
0.72500000, 0.07500000, -0.44840112
0.73500000, 0.07500000, -0.45197567
0.74500000, 0.07500000, -0.45376648
0.75500000, 0.07500000, -0.45376648
0.76500000, 0.07500000, -0.45197567
0.77500000, 0.07500000, -0.44840112
0.78500000, 0.07500000, -0.44305694
0.79500000, 0.07500000, -0.43596421
0.80500000, 0.07500000, -0.42715093
0.81500000, 0.07500000, -0.41665188
0.82500000, 0.07500000, -0.40450850
0.83500000, 0.07500000, -0.39076870
0.84500000, 0.07500000, -0.37548672
0.85500000, 0.07500000, -0.35872287
0.86500000, 0.07500000, -0.34054330
0.87500000, 0.07500000, -0.32101976
0.88500000, 0.07500000, -0.30022930
0.89500000, 0.07500000, -0.27825398
0.90500000, 0.07500000, -0.25518051
0.91500000, 0.07500000, -0.23109997
0.92500000, 0.07500000, -0.20610737
0.93500000, 0.07500000, -0.18030137
0.94500000, 0.07500000, -0.15378380
0.95500000, 0.07500000, -0.12665931
0.96500000, 0.07500000, -0.09903496
0.97500000, 0.07500000, -0.07101976
0.98500000, 0.07500000, -0.04272428
0.99500000, 0.07500000, -0.01426019
0.00500000, 0.08500000, 0.01598938
0.01500000, 0.08500000, 0.04790503
0.02500000, 0.08500000, 0.07963162
0.03500000, 0.08500000, 0.11104394
0.04500000, 0.08500000, 0.14201803
0.05500000, 0.08500000, 0.17243163
0.06500000, 0.08500000, 0.20216472
0.07500000, 0.08500000, 0.23109997
0.08500000, 0.08500000, 0.25912316
0.09500000, 0.08500000, 0.28612372
0.10500000, 0.08500000, 0.31199507
0.11500000, 0.08500000, 0.33663513
0.12500000, 0.08500000, 0.35994664
0.13500000, 0.08500000, 0.38183760
0.14500000, 0.08500000, 0.40222163
0.15500000, 0.08500000, 0.42101827
0.16500000, 0.08500000, 0.43815334
0.17500000, 0.08500000, 0.45355922
0.18500000, 0.08500000, 0.46717511
0.19500000, 0.08500000, 0.47894728
0.20500000, 0.08500000, 0.48882926
0.21500000, 0.08500000, 0.49678205
0.22500000, 0.08500000, 0.50277427
0.23500000, 0.08500000, 0.50678227
0.24500000, 0.08500000, 0.50879023
0.25500000, 0.08500000, 0.50879023
0.26500000, 0.08500000, 0.50678227
0.27500000, 0.08500000, 0.50277427
0.28500000, 0.08500000, 0.49678205
0.29500000, 0.08500000, 0.48882926
0.30500000, 0.08500000, 0.47894728
0.31500000, 0.08500000, 0.46717511
0.32500000, 0.08500000, 0.45355922
0.33500000, 0.08500000, 0.43815334
0.34500000, 0.08500000, 0.42101827
0.35500000, 0.08500000, 0.40222163
0.36500000, 0.08500000, 0.38183760
0.37500000, 0.08500000, 0.35994664
0.38500000, 0.08500000, 0.33663513
0.39500000, 0.08500000, 0.31199507
0.40500000, 0.08500000, 0.28612372
0.41500000, 0.08500000, 0.25912316