TITLE = "Linear advection equation"
VARIABLES = "x", "y", "sol"
ZONE STRANDID=1, SOLUTIONTIME=1.8, I=100, J=100, DATAPACKING=POINT
0.00500000, 0.00500000, -20829197148829685601431721008880299395763745339313114079217733523938962000838656.00000000
0.01500000, 0.00500000, 22876489711206267295272818291073402048670620888793519154780739609810056813477888.00000000
0.02500000, 0.00500000, -24846276955183429096801030397014062375935186267876019967593547994785925243600896.00000000
0.03500000, 0.00500000, 26800049243446591423650368127256052388824158663512119655185153005355782553731072.00000000
0.04500000, 0.00500000, -27680435822444337901208173131130640122862976764594986029144090274386049970995200.00000000
0.05500000, 0.00500000, 27570042270847031792181277438662174131192107462115408506381280116857521133584384.00000000
0.06500000, 0.00500000, -27105560673831246274833779972142112782521426782484235210695669287626676107214848.00000000
0.07500000, 0.00500000, 26826588837566388338398126590910263455033208816501040265362622896330002151768064.00000000
0.08500000, 0.00500000, -26622080177653898995576734364055965777789110072258746213816606743923574234415104.00000000
0.09500000, 0.00500000, 25541906929430846907926548113104368165917346814509330111513445452253295076704256.00000000
0.10500000, 0.00500000, -23486772862240608252022012038584311645500114634980580408841250734291450098352128.00000000
0.11500000, 0.00500000, 21460148557676919718009696508027477865193979685005230533032315444258460506521600.00000000
0.12500000, 0.00500000, -19811617005382628989278059396653918934986139216361584733091047456255418000474112.00000000
0.13500000, 0.00500000, 19236850398726980243530145998021589984008553546889811438406411998966660317839360.00000000
0.14500000, 0.00500000, -20551225844763701314008035068731755674151144188997163398815271600680273805574144.00000000
0.15500000, 0.00500000, 24730987099086678489948157215286791191792119447385038055866024137970588523167744.00000000
0.16500000, 0.00500000, -32689518793743804948759327028115546755719052872815448011876518273315534561869824.00000000
0.17500000, 0.00500000, 45547509159137954693235770476467936128071026966120180274348963820443908282777600.00000000
0.18500000, 0.00500000, -64862815065067977602635997131325066456453846181399312818532840859629239608016896.00000000
0.19500000, 0.00500000, 93835386379149279710652481805299568810254087356483908428036772434422305937948672.00000000
0.20500000, 0.00500000, -140367571651902015351586990377229170221544450298659598155789413352443395589537792.00000000
0.21500000, 0.00500000, 213086428874402517175415385535022435295699688421913627622930551073743790959230976.00000000
0.22500000, 0.00500000, -313085339187775564801985719671408218202739422975543661411054023535190062544191488.00000000
0.23500000, 0.00500000, 438312352641971575282629919770986171909245780261361613839698452086055352087347200.00000000
0.24500000, 0.00500000, -597757580267032525838766748488510273203001037199713683983930813619616223842009088.00000000
0.25500000, 0.00500000, 798882057947954370893943647975731592039364829084908500718012517225212446314070016.00000000
0.26500000, 0.00500000, -1027758782217243416082511838475413492074570834295655022356120072174324308651278336.00000000
0.27500000, 0.00500000, 1276932635242242504072118291812165096310141318256037668214277966471437803637964800.00000000
0.28500000, 0.00500000, -1349190888902695143955230858748741950748696696963664384950987505185398370823307264.00000000
0.29500000, 0.00500000, 1854559782886925820131491846724790634005453652464299048695214223430495725019987968.00000000
0.30500000, 0.00500000, -2151652588846616359746352561062201836939808544828942397680033580884880911237120000.00000000
0.31500000, 0.00500000, 2436050442956847118429962877796734019753851690610023161424805842841750394202226688.00000000
0.32500000, 0.00500000, -2690382786943311363659477657676085743327587147002138618931908618950120129119125504.00000000
0.33500000, 0.00500000, 2909602244971198808357882904492832058708807251174806726964789374602572661444837376.00000000
0.34500000, 0.00500000, -3097844322423432066615789431604167267181141905315522874105376926079900539064156160.00000000
0.35500000, 0.00500000, 3229561172536735291989470488970247569325533218696855953933007125860482657518878720.00000000
0.36500000, 0.00500000, -3280233608928577299357304912542952585507535124329039293232280828597089419720130560.00000000
0.37500000, 0.00500000, 2778602275583248284358961962442102071352951560925634379014326527167259092390510592.00000000
0.38500000, 0.00500000, -3110607935951105574086346805608256104202854952909955180939193928932551083247534080.00000000
0.39500000, 0.00500000, 2408940500376885471325345899207886044370240520859045665715892448842112677722456064.00000000
0.40500000, 0.00500000, -2327853814255452883152264566271773020707065025710892485937076523179297438957568000.00000000
0.41500000, 0.00500000, 1722550758883349116787471078311146843867791393022890251199265470632812480334659584.00000000
0.42500000, 0.00500000, -1053999511936909307047751218408716881150794805828832694521716908966555031170973696.00000000
0.43500000, 0.00500000, 372823717986827443359500901921438975230210852595273185030632056964750040971083776.00000000
0.44500000, 0.00500000, 285592791958992858976456174957291218566828965814004805865623002265739695631630336.00000000
0.45500000, 0.00500000, -889512897992447655824085150897019190254067068884760381317657159210093578217848832.00000000
0.46500000, 0.00500000, 1398564888392620292925858351134913726630892366598406046398228804931446244007477248.00000000
0.47500000, 0.00500000, -1770185313720962075642511736077530047268711958066472369380675418296896242726207488.00000000
0.48500000, 0.00500000, 1982317754762263923255034608251416731308148545761849182049848513761218404649271296.00000000
0.49500000, 0.00500000, -2045322062631041010874652725857327676959625308490383798379540630465091761420107776.00000000
0.50500000, 0.00500000, 1984987920096980432270171535774540611113991745036392363729013849162829902985035776.00000000
0.51500000, 0.00500000, -1824113193014901404476037603494585576983931138343387476852972585153344957921099776.00000000
0.52500000, 0.00500000, 1592359012855391051344107428490850237266835179011511973831141860273791516020834304.00000000
0.53500000, 0.00500000, -1327067197533531788361876066452726117562546238821854517981215672719037984063619072.00000000
0.54500000, 0.00500000, 1057247325295321012579556881037050084746207863668409547804865882961528667083112448.00000000
0.55500000, 0.00500000, -801461004111062232532970870014208079641504968911818015196107812286611197739925504.00000000
0.56500000, 0.00500000, 570255980746264184552965149013955933875083054624169480076633303883775860111572992.00000000
0.57500000, 0.00500000, -369711957716970699954788786100589814724965399873184417197676921141369914198589440.00000000
0.58500000, 0.00500000, 215199236447153944210026203800082814728095107184503632788032449730665847229251584.00000000
0.59500000, 0.00500000, -100007668224886330790430456326933296562550968781292106734182885351913554364596224.00000000
0.60500000, 0.00500000, 20674550154068243150464324433578363932615743599969843016644403499109006205517824.00000000
0.61500000, 0.00500000, 30058729692395532462085669375331367442812186953740071580399717921266697192341504.00000000
0.62500000, 0.00500000, -59407448932263427784189395379228848645149104567387738675261078869314703487664128.00000000
0.63500000, 0.00500000, 73900183401343210912305121963823902549567171495574606698040613920432028901179392.00000000
0.64500000, 0.00500000, -78581916516689195950396819564743654061900762225246699991568934883308961802485760.00000000
0.65500000, 0.00500000, 76974391959456891158401212938562035866248981209905002811694832318924176763125760.00000000
0.66500000, 0.00500000, -71599107309233141903748525487353791547176611949913387771021374894568017621942272.00000000
0.67500000, 0.00500000, 64248371631435271562821132781928594391889832563116160855769486298288939419566080.00000000
0.68500000, 0.00500000, -56222959929040483399413286018585652545152563758431122958405891599831122768297984.00000000
0.69500000, 0.00500000, 48464108335474175345299398029918100563626799353068803857313085606290423461969920.00000000
0.70500000, 0.00500000, -41364910682867559034387647356723254578835092906709144928268303349844973855965184.00000000
0.71500000, 0.00500000, 34742248161608754165378777434148010883947326844260166346589006977784823567876096.00000000
0.72500000, 0.00500000, -28445549679194568737454684781984788902541517431961094840792559286169303045373952.00000000
0.73500000, 0.00500000, 22587557448508381911622434268016336803053393049323367908648622083502356381564928.00000000
0.74500000, 0.00500000, -17309297191207484395076414975575475374196463922752221439909704894747622317752320.00000000
0.75500000, 0.00500000, 12773676584640282575895837616978932243786797505411868813752846708723502198816768.00000000
0.76500000, 0.00500000, -9103098538392410548528390711677618252172004763958594133225194164619439366995968.00000000
0.77500000, 0.00500000, 6275041853725439727163700896204147963028262120439182148693452904352398499119104.00000000
0.78500000, 0.00500000, -4158742671217099677471230750492878328425587879264884055601712790918674591514624.00000000
0.79500000, 0.00500000, 2514418187091444099936120273444584458695337028123723702073610083480038927237120.00000000
0.80500000, 0.00500000, -1128384841666811461875760000317058213919775623183120471467243943727362643853312.00000000
0.81500000, 0.00500000, 893161328978235476121686097302564237217523478388278638708160522362836760920064.00000000
0.82500000, 0.00500000, -514726941980402938752090131326165631689865776996841195613102460140412569911296.00000000
0.83500000, 0.00500000, 328474672561019631210077149907984109092692089406974685891389723171366855770112.00000000
0.84500000, 0.00500000, -248809526527733648623694541184420558975688748966301127069741421010159090532352.00000000
0.85500000, 0.00500000, 259558670105432107188665230563241529901626828077579892486701939437299197542400.00000000
0.86500000, 0.00500000, -376251956635196669106115771788370519470023783908767006926740078363323257585664.00000000
0.87500000, 0.00500000, 573323604777747373065898059004740995338068855634677775975479921380859100266496.00000000
0.88500000, 0.00500000, -852234330177270460527646133664572753242955776266500742268336713648961142915072.00000000
0.89500000, 0.00500000, 1242152029647321137479033351068522757037555235326273962579584306811082037526528.00000000
0.90500000, 0.00500000, -1756910313781750449829559396444696581246482941997616937891579526938202204012544.00000000
0.91500000, 0.00500000, 2366183153228902073288761873279245686094041239751955987845239091505403262926848.00000000
0.92500000, 0.00500000, -3092988558186459485502923823913310214981965885234739094545239349437390047412224.00000000
0.93500000, 0.00500000, 4109588550578741364046778771532893647615713189724670192290200354616620907233280.00000000
0.94500000, 0.00500000, -4626438460098154132568445674989605002157954143929039111520456478579999081758720.00000000
0.95500000, 0.00500000, 6039134406055203191797847968439756305878034376655983312258825781244768842416128.00000000
0.96500000, 0.00500000, -8797793944838712846251603556826744688315499048073742975385601140010416303243264.00000000
0.97500000, 0.00500000, 11485577793464387513410265567641309244940633110716929391408360761070970766098432.00000000
0.98500000, 0.00500000, -14457418376238606270512924543224353930382546118199240166976373383944893582278656.00000000
0.99500000, 0.00500000, 17786096853820306601164642213768816465686010492965450700150855633114584433295360.00000000
0.00500000, 0.01500000, 25382712079741663688624270625266675986476494271963020912685161804143886111604736.00000000
0.01500000, 0.01500000, -28597634885171486561128168328766393791399960439128520517974290234201766180683776.00000000
0.02500000, 0.01500000, 32073975819823094563748105182725254879673502981995201680270594358958412550635520.00000000
0.03500000, 0.01500000, -34528816364148500272195823120821594722853493394234993174395211051276861614063616.00000000
0.04500000, 0.01500000, 35491207372090335193788105718231353600544439757806734084440597628109016031821824.00000000
0.05500000, 0.01500000, -35578790946230694992787035905231868668508022355161489972311203256521569366704128.00000000
0.06500000, 0.01500000, 35509840284907489523529528464324004637465658006242939920831347344978921685778432.00000000
0.07500000, 0.01500000, -35846241305491991490653472669863009364093740181557439419348052087624100686594048.00000000
0.08500000, 0.01500000, 35382401914542281309661271380651554692029103464610435373710391397791064553160704.00000000
0.09500000, 0.01500000, -33260974032431555896441921243717453470417593623266363115765576653278219417419776.00000000
0.10500000, 0.01500000, 30125836866612187166504685354625041258774236876541022249389551366055220693958656.00000000
0.11500000, 0.01500000, -26701949810439084569864759012781711047324048692676879557169207528746735632384000.00000000
0.12500000, 0.01500000, 23508887426020248516400886436964029896543338397221690075876938247720537295945728.00000000
0.13500000, 0.01500000, -21224065776848769552584619912886133613787205850863511825524819895578244476305408.00000000
0.14500000, 0.01500000, 20682590402779032957914660153696079430687902618779112331934921440218098125766656.00000000
0.15500000, 0.01500000, -22654866724492873320926118051196941562829171513259883032964886092387698276827136.00000000
0.16500000, 0.01500000, 27593500753122091115087491581175551784734537164166344830102390882368333576929280.00000000
0.17500000, 0.01500000, -36331885273713096875566680832738157260340647128647329507385669728784430303019008.00000000
0.18500000, 0.01500000, 50700849142979213016539284896212961299959098783003700079754125626843303214317568.00000000
0.19500000, 0.01500000, -74096937170090006023811700458983169572847848763470270958843002880995957818785792.00000000
0.20500000, 0.01500000, 111654231855621867767108591975529077382789094574234481818096455051063343582281728.00000000
0.21500000, 0.01500000, -166566830973213648580626814760472744125845365107896290514749491794898560701431808.00000000
0.22500000, 0.01500000, 239911522366153528590490594243945739900773172932147250507769942692450747084177408.00000000
0.23500000, 0.01500000, -336486421810215734305926434664220664432850680743700092590864209106041211606532096.00000000
0.24500000, 0.01500000, 462990892967361700333156920383456908366962220006590167652407967491272794179633152.00000000
0.25500000, 0.01500000, -614329669576050198199124771881640251001711110495405792534993865341609509715443712.00000000
0.26500000, 0.01500000, 784717316886499424949242399586440797132065030324223038461000784693174754491760640.00000000
0.27500000, 0.01500000, -986740495812934438413635514070356105339956314584524790010063039572893698151677952.00000000
0.28500000, 0.01500000, 1224048891468046620251516884095715173202885809968977844158930967348571829667102720.00000000
0.29500000, 0.01500000, -1475589790942469098782424469770430424933013634285702118952539715618295248158982144.00000000
0.30500000, 0.01500000, 1716020514508198873624936865920092928824075485647607003429308244222394108129312768.00000000
0.31500000, 0.01500000, -1926741598159123885752879181656023771537940986465463139620577470060492004161224704.00000000
0.32500000, 0.01500000, 2117418793264755950935626157641673915987037113851240882943787607921710862300086272.00000000
0.33500000, 0.01500000, -2315856937831096143615445803889050130327991838038193004982546058700588836750098432.00000000
0.34500000, 0.01500000, 2497700536971285044572758506221511763691530977726954349346507432163967296763592704.00000000
0.35500000, 0.01500000, -2602247216016245885322270918748462899941812095804795193863633174229549265983635456.00000000
0.36500000, 0.01500000, 2623984647814289039249194093265379733880864806200140069481538734952656315694972928.00000000
0.37500000, 0.01500000, -2578959235421187130200652523441348581853327802857771138884376541881570532509351936.00000000
0.38500000, 0.01500000, 2426213497380307513522749111491765714631906381352699028774657964306395830486564864.00000000
0.39500000, 0.01500000, -2120839599754939848361278186066991223079672926431128710783271338082748993642692608.00000000
0.40500000, 0.01500000, 1681523609054507405654204973439505074529986147181204760318527701463272410830602240.00000000
0.41500000, 0.01500000, -1163660287821834119390890390750092848467932158469325530314421231449707229942382592.00000000
0.42500000, 0.01500000, 617931181586416733231992747903189323947800689597144842211943236506635363858513920.00000000
0.43500000, 0.01500000, -78444376197740421283112757051015926049734631894445937326979522603095205510905856.00000000
0.44500000, 0.01500000, -433143435486039825019588633612843615043226548710996392603576797722119794201722880.00000000
0.45500000, 0.01500000, 889909803905021757667298473495457141720860283527768651172866498781092618564534272.00000000
0.46500000, 0.01500000, -1252598987813182607963510748092020638182820149127427051988270498596270211971678208.00000000
0.47500000, 0.01500000, 1490029163750406554303808876267738223849159033424648144126628369306137417027158016.00000000
0.48500000, 0.01500000, -1598712068760701424766177905545039867915811357851293710213409935471002105170362368.00000000
0.49500000, 0.01500000, 1596960609603883493651896839992406148799169290126087638976616521501050029591232512.00000000
0.50500000, 0.01500000, -1506577919569264679469719223502697484011656927770779148421654020230784894537564160.00000000
0.51500000, 0.01500000, 1348653705075463142210304521803069208903458845725585328455253586123003899806744576.00000000
0.52500000, 0.01500000, -1149723977730164375945976384423276644185861572482263206337514299262143720289468416.00000000
0.53500000, 0.01500000, 935616335704216691891594902916084205067122172315843032089131459804418070965911552.00000000
0.54500000, 0.01500000, -723450058153927009022165843963446589219101977069000670496355110860178016467681280.00000000
0.55500000, 0.01500000, 524310249022499257573915746633947697631774637243649734071273471854144344610045952.00000000
0.56500000, 0.01500000, -349798664346367096869342296708729349542525494747126103750889723468560125577396224.00000000
0.57500000, 0.01500000, 211192315311112563006693880297273373241601858837197722858200606345247590281379840.00000000
0.58500000, 0.01500000, -110507536313423907052827485130300872644835134354261913435340604716963830614196224.00000000
0.59500000, 0.01500000, 41462666129258027920908537957558736733974715433792333031180858835595234012823552.00000000
0.60500000, 0.01500000, 2704584966033699005048026647367195015471370191481127233903108524559999111790592.00000000
0.61500000, 0.01500000, -28001829945420570761302142907546492365630485823822488214856887265641495074439168.00000000
0.62500000, 0.01500000, 40504386996854980311934797848011645632506072586449509248734853658964271342551040.00000000
0.63500000, 0.01500000, -45051203432111475822040956577618794910271408420787463815342534658327860597489664.00000000
0.64500000, 0.01500000, 44692832461438217233715052523245008249551150489660503525094480823026889290416128.00000000
0.65500000, 0.01500000, -41561283050638607622797165611879160787728187090018962634045148484302221929873408.00000000
0.66500000, 0.01500000, 37176725197094788960414125664319988260842252098161700863471851321118124389957632.00000000
0.67500000, 0.01500000, -32479640829001499275780679573116620965298628055013789205546819799966102113484800.00000000
0.68500000, 0.01500000, 28202948715869088340713068147781039211622224336453277779061609865953185468776448.00000000
0.69500000, 0.01500000, -24710421968295600300511964068131487158874529931887631428711204096422559275286528.00000000
0.70500000, 0.01500000, 21611146944646028389742983297838144287263558632809681238507804410845307129036800.00000000
0.71500000, 0.01500000, -18397380955876246606983387618745930706103971963958655306705506979342374938869760.00000000
0.72500000, 0.01500000, 15104120237070034284947217430264603296029352327111287817887372024539844282679296.00000000
0.73500000, 0.01500000, -11974052186061503255259144205003259740074028745778096161142899628738475454365696.00000000
0.74500000, 0.01500000, 9157133960639988155469796695464791889204940814122117901406937956126812113207296.00000000
0.75500000, 0.01500000, -6751168313283618871868315517005011937042963242292182902810329533616788223295488.00000000
0.76500000, 0.01500000, 4798727173920563185744439599608400510198410583946268019923330684020014427668480.00000000
0.77500000, 0.01500000, -3270504608689442495490541651247910817506772221294450215786678685448895884951552.00000000
0.78500000, 0.01500000, 2109793926237558561056640527923414535506366903651819200560163507901180107816960.00000000
0.79500000, 0.01500000, -1228598083573194543021825490433076753629342489390824464065555702862466665938944.00000000
0.80500000, 0.01500000, 740763189632297732553125641357387946067323562847038145772079128554399636389888.00000000
0.81500000, 0.01500000, -426424723854728117732580545346504126852334906280502467528999125055622088753152.00000000
0.82500000, 0.01500000, 278987585435125158605069563072530406784887239170064804466536666989927533117440.00000000
0.83500000, 0.01500000, -223239728052501427192381342948710334209266993054279268107600152963794534924288.00000000
0.84500000, 0.01500000, 210047019934348535052328757028682361703023015960335772003470364968135763689472.00000000
0.85500000, 0.01500000, -302911073083183408262795927841532620314954896486335875836910436280688778936320.00000000
0.86500000, 0.01500000, 493339688733937970411595933460859956775351703542976280610329907786122962927616.00000000
0.87500000, 0.01500000, -745062787947703712323250115795473752460747199830008729305009046131559347781632.00000000
0.88500000, 0.01500000, 1109350410545845300460055814032677022482872094358235563215692305475039251136512.00000000
0.89500000, 0.01500000, -1603733574854755589819086850096211537058788994333670897274658207565400974032896.00000000
0.90500000, 0.01500000, 1356270788050024312712124649056928386569060414805897618611833423911292835463168.00000000
0.91500000, 0.01500000, -2971053996034744950512427678126314677813527497771030172020184824654912999653376.00000000
0.92500000, 0.01500000, 3909584660329465373314660174063842078595632341711269816441475063108055521558528.00000000
0.93500000, 0.01500000, -5340369364693032401261833072567308622766800843728570201047526745499971547561984.00000000
0.94500000, 0.01500000, 5932116438447962049445818319891372385253161378708932962121714816004239380185088.00000000
0.95500000, 0.01500000, -8256095853567603472607346014175236989193726680802010422283313588817297076649984.00000000
0.96500000, 0.01500000, 11062042582741814523396578575278136452126227576946150512137258106028975986835456.00000000
0.97500000, 0.01500000, -14120766178091148084323821903254267308748064549584107959178215969337227232673792.00000000
0.98500000, 0.01500000, 17340805400601869464777902485597096514862476861338361637801697644572097793490944.00000000
0.99500000, 0.01500000, -21521529772975833777781643264991830662021221041258074118965855066744727980212224.00000000
0.00500000, 0.02500000, -34046480288311195595716190768755985757058819301968574703019597107746134334373888.00000000
0.01500000, 0.02500000, 39751257174172742905177052582446379589912621890914632767346357743202558478909440.00000000
0.02500000, 0.02500000, -44672907188478776533883327559541946906136858750168089125980639958429161941368832.00000000
0.03500000, 0.02500000, 48383215949115096131951713149058580141000378757659338253411308958637486510178304.00000000
0.04500000, 0.02500000, -51489356473700353126497460771381299921514952830731190821624810300926606343929856.00000000
0.05500000, 0.02500000, 53616929025781772723569703857669609956096553607283241139861617441423047348191232.00000000
0.06500000, 0.02500000, -54946574486910844163210162120668418863214749801741269722814728074064877083164672.00000000
0.07500000, 0.02500000, 55015683483617140219535483385694530486312797889661178867815252423213796546314240.00000000
0.08500000, 0.02500000, -52999842022884544900346304878446903791350164812053027639682778922317467506180096.00000000
0.09500000, 0.02500000, 49175716230280924598061825788831569156833219516323676870633405406009203517030400.00000000
0.10500000, 0.02500000, -44153217869697289002458780469004576684853774005330960990420247991480921540788224.00000000
0.11500000, 0.02500000, 38524163368761548593949862229215126799710101079876490462486972304526058379542528.00000000
0.12500000, 0.02500000, -33032972211210706715736636234676076387086779884817804234440238087961581782564864.00000000
0.13500000, 0.02500000, 28450053799404640391796393513607382197719510961220686255013741821156850827001856.00000000
0.14500000, 0.02500000, -25543327509779382259756687442780228426388801948641592531649090347358632842100736.00000000
0.15500000, 0.02500000, 24781947118338040472748860497748302872765174475520096613720188468975748666884096.00000000
0.16500000, 0.02500000, -26435708009463718318808235538899073731065178640039419744266803516455202628567040.00000000
0.17500000, 0.02500000, 31352276061694812585204610577183790416683578344697002403751291119818086155288576.00000000
0.18500000, 0.02500000, -41248614472467633833811633543959128431261256940549209932739013909928627616612352.00000000
0.19500000, 0.02500000, 58875221101585833164924134927886093138723821536590733830852278334753923726835712.00000000
0.20500000, 0.02500000, -87220524724842738148471345428705905761960063020573291677394645996696445279797248.00000000
0.21500000, 0.02500000, 127691050414335230445101253771216764796373655261559391974448367677693787688140800.00000000
0.22500000, 0.02500000, -183412683241629621273614880732390132898508613186310632372629496650100369545756672.00000000
0.23500000, 0.02500000, 261121006264969792651500197781528649878165811224641359458146786767541070433615872.00000000
0.24500000, 0.02500000, -361135035812483327411716620521877880952840520933150231283911476307553157858197504.00000000
0.25500000, 0.02500000, 476233384489961160396058499031350688756165337448073706690591907435977667667558400.00000000
0.26500000, 0.02500000, -613224841780400939395938583892796385899021071709429232290781778819068865823113216.00000000
0.27500000, 0.02500000, 784732499114855636267274663058927619599761487685431445333523798107453832306884608.00000000
0.28500000, 0.02500000, -982399737735498185290502266843917283081192797583231980792383688475128515581181952.00000000
0.29500000, 0.02500000, 1186521562458580342948622316308555641610630181878620674448186803406093154858827776.00000000
0.30500000, 0.02500000, -1376153790074688796185371880927187381371905252318066345642339911560034695434469376.00000000
0.31500000, 0.02500000, 1542946520646414825424917957062765293249875506725649398690077186751074715903721472.00000000
0.32500000, 0.02500000, -1713618572855153986866508216956044422679290315539073463438923575386981698967175168.00000000
0.33500000, 0.02500000, 1897861326546519977591086954256370507877074674233923194328137344196008039877181440.00000000
0.34500000, 0.02500000, -2036455438494095405829481968503144700464779459429471583009431380120905824610549760.00000000
0.35500000, 0.02500000, 2087936533120989959019143199857416407243553102696869937174204022988826224768319488.00000000
0.36500000, 0.02500000, -2080201807226649539571855975466620442736550715037670292195051272729081775365554176.00000000
0.37500000, 0.02500000, 2012051795942488277786660113400883610361145944466835180887129482635625588691304448.00000000
0.38500000, 0.02500000, -1833284533783397351505000272040383695080679177242768787414242409050204394695426048.00000000
0.39500000, 0.02500000, 1532673902991716088085470079339920030259149188195469959334717501390179303992328192.00000000
0.40500000, 0.02500000, -1148156595028243469942659858205554828185370235887651530855198940646849869223297024.00000000
0.41500000, 0.02500000, 723658475526109491907675928325233501638196689109079903071413831171575773294231552.00000000
0.42500000, 0.02500000, -293431844136039582576499587254040778910534570678376075208493341557052789472886784.00000000
0.43500000, 0.02500000, -122073846591498352188370262313324446613963275119807965256649636380262855778238464.00000000
0.44500000, 0.02500000, 508089319489420205431582280334859284560971910666369175923364694383245976324276224.00000000
0.45500000, 0.02500000, -838209198469865869076799006288990860169915596207392887288065649097505147036106752.00000000
0.46500000, 0.02500000, 1080814664933398184221252379277052869630906080511729275669254977068891662303887360.00000000
0.47500000, 0.02500000, -1220992410503194350684434832957745516554986633734466247153628751358896144163799040.00000000
0.48500000, 0.02500000, 1264917294259264475835148520334780472662362972091663937824371981491367386187563008.00000000
0.49500000, 0.02500000, -1228571268652126612666960859570460936862826137585588580124116444077446524703866880.00000000
0.50500000, 0.02500000, 1129709747937124527197932233212876973959266034631133976691380504201836802617638912.00000000
0.51500000, 0.02500000, -987980025876096365400714698875522352275790244420499565775181443050381983940083712.00000000
0.52500000, 0.02500000, 824374363746112728194395345038870242458878159635051482123361401296118607337488384.00000000
0.53500000, 0.02500000, -655551135790461475784220842166397646366151369347589280543869108315901575601061888.00000000
0.54500000, 0.02500000, 491807175775603665481230647335858770992829401177822904588673551321304372726464512.00000000
0.55500000, 0.02500000, -342899972653693602843029853434696681743445015384358599635920740209895263835258880.00000000
0.56500000, 0.02500000, 220962995140390269845249295788278502811430444041917328229263186042811843801513984.00000000
0.57500000, 0.02500000, -131778977977753345762602321510346913157174912309623884380401031453986277281497088.00000000
0.58500000, 0.02500000, 70852653587937791870151029166784132516718252297204072474787390227851662516551680.00000000