TITLE = "Linear advection equation"
VARIABLES = "x", "y", "sol"
ZONE STRANDID=1, SOLUTIONTIME=0.55, I=100, J=100, DATAPACKING=POINT
0.00500000, 0.00500000, -569215203957801463316480.00000000
0.01500000, 0.00500000, 427967112619815145046016.00000000
0.02500000, 0.00500000, -237262066472386983624704.00000000
0.03500000, 0.00500000, 37877755671831046520832.00000000
0.04500000, 0.00500000, 142822349602326038183936.00000000
0.05500000, 0.00500000, -283632054606361140396032.00000000
0.06500000, 0.00500000, 374882951259344190046208.00000000
0.07500000, 0.00500000, -423330281150927312257024.00000000
0.08500000, 0.00500000, 441964401086082198798336.00000000
0.09500000, 0.00500000, -438102648055911581483008.00000000
0.10500000, 0.00500000, 412278213883780633985024.00000000
0.11500000, 0.00500000, -365533034797799978303488.00000000
0.12500000, 0.00500000, 306135310891874565226496.00000000
0.13500000, 0.00500000, -244605487383354194001920.00000000
0.14500000, 0.00500000, 189968336468349963730944.00000000
0.15500000, 0.00500000, -148836008008034553954304.00000000
0.16500000, 0.00500000, 121535883973919732924416.00000000
0.17500000, 0.00500000, -104993757131175618412544.00000000
0.18500000, 0.00500000, 96350971322807114268672.00000000
0.19500000, 0.00500000, -95143265507016330706944.00000000
0.20500000, 0.00500000, 103060434912665378226176.00000000
0.21500000, 0.00500000, -121085921248681660514304.00000000
0.22500000, 0.00500000, 146044813408025402408960.00000000
0.23500000, 0.00500000, -170005287494297086590976.00000000
0.24500000, 0.00500000, 182494042047733775204352.00000000
0.25500000, 0.00500000, -173729680314152209350656.00000000
0.26500000, 0.00500000, 139104941136343046553600.00000000
0.27500000, 0.00500000, -83529790031996515254272.00000000
0.28500000, 0.00500000, 21561155292829126230016.00000000
0.29500000, 0.00500000, 27311017046252493733888.00000000
0.30500000, 0.00500000, -44561313023001356140544.00000000
0.31500000, 0.00500000, 17833003320471030071296.00000000
0.32500000, 0.00500000, 54440041183117064536064.00000000
0.33500000, 0.00500000, -163046848742519425990656.00000000
0.34500000, 0.00500000, 295989378446186220879872.00000000
0.35500000, 0.00500000, -437544539766854304923648.00000000
0.36500000, 0.00500000, 567379896376697754222592.00000000
0.37500000, 0.00500000, -674353074893763576332288.00000000
0.38500000, 0.00500000, 745240316342206042472448.00000000
0.39500000, 0.00500000, -755951949396043594989568.00000000
0.40500000, 0.00500000, 701252062985002252500992.00000000
0.41500000, 0.00500000, -600824639638856179646464.00000000
0.42500000, 0.00500000, 480818697069215310938112.00000000
0.43500000, 0.00500000, -367994269091637317599232.00000000
0.44500000, 0.00500000, 287312837954925743833088.00000000
0.45500000, 0.00500000, -256012115725487825747968.00000000
0.46500000, 0.00500000, 276877735047035998961664.00000000
0.47500000, 0.00500000, -340944673720050879823872.00000000
0.48500000, 0.00500000, 431815741769501082910720.00000000
0.49500000, 0.00500000, -530551006079968396443648.00000000
0.50500000, 0.00500000, 623137319216609708998656.00000000
0.51500000, 0.00500000, -691515826322126833451008.00000000
0.52500000, 0.00500000, 707626829502570276323328.00000000
0.53500000, 0.00500000, -654034297760295474429952.00000000
0.54500000, 0.00500000, 536044816966334810161152.00000000
0.55500000, 0.00500000, -369923565076844409520128.00000000
0.56500000, 0.00500000, 177085270708979811483648.00000000
0.57500000, 0.00500000, 14045174078364744417280.00000000
0.58500000, 0.00500000, -172946404719816179974144.00000000
0.59500000, 0.00500000, 276653914708515332554752.00000000
0.60500000, 0.00500000, -317858887363815320584192.00000000
0.61500000, 0.00500000, 306255221440758818013184.00000000
0.62500000, 0.00500000, -262133241604344989614080.00000000
0.63500000, 0.00500000, 206998795316056895258624.00000000
0.64500000, 0.00500000, -156084634573588622475264.00000000
0.65500000, 0.00500000, 115287416765857335869440.00000000
0.66500000, 0.00500000, -82972675554095101116416.00000000
0.67500000, 0.00500000, 54645497667801462079488.00000000
0.68500000, 0.00500000, -27160937732159024660480.00000000
0.69500000, 0.00500000, 191982450335836798976.00000000
0.70500000, 0.00500000, 25118147149320608022528.00000000
0.71500000, 0.00500000, -48529039699723541282816.00000000
0.72500000, 0.00500000, 71987131883188612235264.00000000
0.73500000, 0.00500000, -98805689483680544718848.00000000
0.74500000, 0.00500000, 91985214769104834002944.00000000
0.75500000, 0.00500000, -166925063857692135653376.00000000
0.76500000, 0.00500000, 189931227492508650962944.00000000
0.77500000, 0.00500000, -189209923602158568079360.00000000
0.78500000, 0.00500000, 177517038672638333943808.00000000
0.79500000, 0.00500000, -142472575161551453945856.00000000
0.80500000, 0.00500000, 55108832765290792091648.00000000
0.81500000, 0.00500000, 79057480341470589222912.00000000
0.82500000, 0.00500000, -260268725990529158873088.00000000
0.83500000, 0.00500000, 470371164952110919843840.00000000
0.84500000, 0.00500000, -679919297340368966647808.00000000
0.85500000, 0.00500000, 538058189974382059716608.00000000
0.86500000, 0.00500000, -1060222872186440984297472.00000000
0.87500000, 0.00500000, 1273277651431123220168704.00000000
0.88500000, 0.00500000, -1421626708288917523660800.00000000
0.89500000, 0.00500000, 1448351873431299474587648.00000000
0.90500000, 0.00500000, -1350361148203966142611456.00000000
0.91500000, 0.00500000, 1157050693802295059021824.00000000
0.92500000, 0.00500000, -923211748443203609559040.00000000
0.93500000, 0.00500000, 707642009191768282628096.00000000
0.94500000, 0.00500000, -554889959018459029307392.00000000
0.95500000, 0.00500000, 484351635890160611098624.00000000
0.96500000, 0.00500000, -489053476751154742296576.00000000
0.97500000, 0.00500000, 541736087670942760697856.00000000
0.98500000, 0.00500000, -602291708179911349895168.00000000
0.99500000, 0.00500000, 625075492463026659917824.00000000
0.00500000, 0.01500000, 664494313583894887137280.00000000
0.01500000, 0.01500000, -437858212080142736424960.00000000
0.02500000, 0.01500000, 177660804133195058511872.00000000
0.03500000, 0.01500000, 73500737123131496333312.00000000
0.04500000, 0.01500000, -285917123165975845273600.00000000
0.05500000, 0.01500000, 432130413128555568300032.00000000
0.06500000, 0.01500000, -512738806360088997003264.00000000
0.07500000, 0.01500000, 550033956801592145477632.00000000
0.08500000, 0.01500000, -561200089193135892070400.00000000
0.09500000, 0.01500000, 547681586020603037483008.00000000
0.10500000, 0.01500000, -505623495462218310352896.00000000
0.11500000, 0.01500000, 438569625334851024453632.00000000
0.12500000, 0.01500000, -358134303541959893975040.00000000
0.13500000, 0.01500000, 277933198796065274331136.00000000
0.14500000, 0.01500000, -210051015249090859499520.00000000
0.15500000, 0.01500000, 160184552330792208957440.00000000
0.16500000, 0.01500000, -127081725956280270454784.00000000
0.17500000, 0.01500000, 105761891180577592180736.00000000
0.18500000, 0.01500000, -91575081204993163788288.00000000
0.19500000, 0.01500000, 82802807643983835037696.00000000
0.20500000, 0.01500000, -80119846860210051219456.00000000
0.21500000, 0.01500000, 83418491129989871697920.00000000
0.22500000, 0.01500000, -89450130483901311746048.00000000
0.23500000, 0.01500000, 92196941166849434845184.00000000
0.24500000, 0.01500000, -84669239894307315384320.00000000
0.25500000, 0.01500000, 61605406028172951027712.00000000
0.26500000, 0.01500000, -23101828648118930898944.00000000
0.27500000, 0.01500000, -23244995197871648145408.00000000
0.28500000, 0.01500000, 63805903772319232294912.00000000
0.29500000, 0.01500000, -82561246519616465797120.00000000
0.30500000, 0.01500000, 65376118078508378357760.00000000
0.31500000, 0.01500000, -4563676838426771980288.00000000
0.32500000, 0.01500000, -97362934733392807198720.00000000
0.33500000, 0.01500000, 228059262887869569564672.00000000
0.34500000, 0.01500000, -368545773256171625381888.00000000
0.35500000, 0.01500000, 494180071587631954132992.00000000
0.36500000, 0.01500000, -589650522101391984427008.00000000
0.37500000, 0.01500000, 656143262970420916125696.00000000
0.38500000, 0.01500000, -688090858150371226812416.00000000
0.39500000, 0.01500000, 670721475348261656068096.00000000
0.40500000, 0.01500000, -600684197726199060889600.00000000
0.41500000, 0.01500000, 494569625543206280101888.00000000
0.42500000, 0.01500000, -382517398208392277786624.00000000
0.43500000, 0.01500000, 293423535801890389360640.00000000
0.44500000, 0.01500000, -247130869082838695673856.00000000
0.45500000, 0.01500000, 250506270386028216844288.00000000
0.46500000, 0.01500000, -298862282843416357240832.00000000
0.47500000, 0.01500000, 380936149132447955550208.00000000
0.48500000, 0.01500000, -477589547598238388846592.00000000
0.49500000, 0.01500000, 568749838889007892660224.00000000
0.50500000, 0.01500000, -637845903075932716924928.00000000
0.51500000, 0.01500000, 663440404907537637310464.00000000
0.52500000, 0.01500000, -627647723675529565437952.00000000
0.53500000, 0.01500000, 531169615362726635241472.00000000
0.54500000, 0.01500000, -385008786585570217295872.00000000
0.55500000, 0.01500000, 203496869173603409592320.00000000
0.56500000, 0.01500000, -9970840750926057177088.00000000
0.57500000, 0.01500000, -164099157707641027821568.00000000
0.58500000, 0.01500000, 288342764192063958286336.00000000
0.59500000, 0.01500000, -345738676830065376886784.00000000
0.60500000, 0.01500000, 340475326482514748375040.00000000
0.61500000, 0.01500000, -293753332545047360438272.00000000
0.62500000, 0.01500000, 231762964902130105712640.00000000
0.63500000, 0.01500000, -174824755136928858243072.00000000
0.64500000, 0.01500000, 131977953447355413954560.00000000
0.65500000, 0.01500000, -101704618924655434006528.00000000
0.66500000, 0.01500000, 77188567709017811451904.00000000
0.67500000, 0.01500000, -52394161540821883551744.00000000
0.68500000, 0.01500000, 25356347861259549409280.00000000
0.69500000, 0.01500000, 2481154824896692879360.00000000
0.70500000, 0.01500000, -29304369469688563892224.00000000
0.71500000, 0.01500000, 55576241944845355057152.00000000
0.72500000, 0.01500000, -84329069816813465894912.00000000
0.73500000, 0.01500000, 118914382470267277410304.00000000
0.74500000, 0.01500000, -159653669357075424083968.00000000
0.75500000, 0.01500000, 201272173480281026592768.00000000
0.76500000, 0.01500000, -213848992016166734004224.00000000
0.77500000, 0.01500000, 201465998696529004593152.00000000
0.78500000, 0.01500000, -180756870109233191845888.00000000
0.79500000, 0.01500000, 107664504792242687311872.00000000
0.80500000, 0.01500000, 32421183398273460731904.00000000
0.81500000, 0.01500000, -224065907677593239289856.00000000
0.82500000, 0.01500000, 459759904328568096686080.00000000
0.83500000, 0.01500000, -599064792997128877113344.00000000
0.84500000, 0.01500000, 776742605252647391854592.00000000
0.85500000, 0.01500000, -1015256473381391969550336.00000000
0.86500000, 0.01500000, 1243789569153358664564736.00000000
0.87500000, 0.01500000, -1509511317191507767721984.00000000
0.88500000, 0.01500000, 1654143909950667330945024.00000000
0.89500000, 0.01500000, -1634360030140709350670336.00000000
0.90500000, 0.01500000, 1460410764602622045323264.00000000
0.91500000, 0.01500000, -1194785480014457865240576.00000000
0.92500000, 0.01500000, 918110391088907267604480.00000000
0.93500000, 0.01500000, -698237680359752247279616.00000000
0.94500000, 0.01500000, 574327115818208036126720.00000000
0.95500000, 0.01500000, -551081703485817472679936.00000000
0.96500000, 0.01500000, 606233767865056753614848.00000000
0.97500000, 0.01500000, -702224233195866297466880.00000000
0.98500000, 0.01500000, 785936458071746063368192.00000000
0.99500000, 0.01500000, -789307942173263502770176.00000000
0.00500000, 0.02500000, -670865719065762238300160.00000000
0.01500000, 0.02500000, 377544962707981334478848.00000000
0.02500000, 0.02500000, -69628076502230727917568.00000000
0.03500000, 0.02500000, -215842156293143459266560.00000000
0.04500000, 0.02500000, 432450464096691465224192.00000000
0.05500000, 0.02500000, -560001107943344262086656.00000000
0.06500000, 0.02500000, 623057536441279766855680.00000000
0.07500000, 0.02500000, -652847259519828881309696.00000000
0.08500000, 0.02500000, 659174209656389216763904.00000000
0.09500000, 0.02500000, -633610907506235964129280.00000000
0.10500000, 0.02500000, 572518713305664321486848.00000000
0.11500000, 0.02500000, -484922580610401047674880.00000000
0.12500000, 0.02500000, 386317487925450533502976.00000000
0.13500000, 0.02500000, -293135547273213724590080.00000000
0.14500000, 0.02500000, 217863038994109721214976.00000000
0.15500000, 0.02500000, -164644798185715278020608.00000000
0.16500000, 0.02500000, 129405928570581181005824.00000000
0.17500000, 0.02500000, -104333321352214095069184.00000000
0.18500000, 0.02500000, 83291615429890869821440.00000000
0.19500000, 0.02500000, -64386642672826498154496.00000000
0.20500000, 0.02500000, 48226823410442838212608.00000000
0.21500000, 0.02500000, -34842417049434490667008.00000000
0.22500000, 0.02500000, 22424254200943457861632.00000000
0.23500000, 0.02500000, -7682739748688751493120.00000000
0.24500000, 0.02500000, -13038772066266726268928.00000000
0.25500000, 0.02500000, 41645318237514960470016.00000000
0.26500000, 0.02500000, -75940273146451577536512.00000000
0.27500000, 0.02500000, 108858743346765378879488.00000000
0.28500000, 0.02500000, -129522866300530890637312.00000000
0.29500000, 0.02500000, 125364131667296873611264.00000000
0.30500000, 0.02500000, -85645122420139930681344.00000000
0.31500000, 0.02500000, 5786857945944250384384.00000000
0.32500000, 0.02500000, 109218587736130577235968.00000000
0.33500000, 0.02500000, -243530536006103106322432.00000000
0.34500000, 0.02500000, 371500249467524533452800.00000000
0.35500000, 0.02500000, -469079661301237605728256.00000000
0.36500000, 0.02500000, 532512477800542806999040.00000000
0.37500000, 0.02500000, -569189522252822323658752.00000000
0.38500000, 0.02500000, 575355948583431643856896.00000000
0.39500000, 0.02500000, -539734774575661316046848.00000000
0.40500000, 0.02500000, 463966807680526286061568.00000000
0.41500000, 0.02500000, -370448172167213887782912.00000000
0.42500000, 0.02500000, 286944085563484921659392.00000000
0.43500000, 0.02500000, -234024110143964671115264.00000000
0.44500000, 0.02500000, 221861340341135409676288.00000000
0.45500000, 0.02500000, -249868853084598539649024.00000000
0.46500000, 0.02500000, 312121372587675514568704.00000000
0.47500000, 0.02500000, -395407580405676260720640.00000000
0.48500000, 0.02500000, 479387921070335396413440.00000000
0.49500000, 0.02500000, -546795475848831011127296.00000000
0.50500000, 0.02500000, 581352223832590423949312.00000000
0.51500000, 0.02500000, -565618532580697713934336.00000000
0.52500000, 0.02500000, 494344533671559670267904.00000000
0.53500000, 0.02500000, -373735260439363194978304.00000000
0.54500000, 0.02500000, 213041148538141938810880.00000000
0.55500000, 0.02500000, -29795041460876306546688.00000000
0.56500000, 0.02500000, -147645107228956287827968.00000000
0.57500000, 0.02500000, 286490774229303534026752.00000000
0.58500000, 0.02500000, -361295001087587928506368.00000000
0.59500000, 0.02500000, 367206736827808565166080.00000000
0.60500000, 0.02500000, -321846930794776245567488.00000000
0.61500000, 0.02500000, 253782902313795226435584.00000000
0.62500000, 0.02500000, -188574901540243831259136.00000000
0.63500000, 0.02500000, 140111892127925391065088.00000000
0.64500000, 0.02500000, -109070220644105674817536.00000000
0.65500000, 0.02500000, 87663499123503776399360.00000000
0.66500000, 0.02500000, -67042381137337816973312.00000000
0.67500000, 0.02500000, 42698586056476474736640.00000000
0.68500000, 0.02500000, -15341117845302587424768.00000000
0.69500000, 0.02500000, -12037928722140609118208.00000000
0.70500000, 0.02500000, 38010934326161496342528.00000000
0.71500000, 0.02500000, -64551675938720649838592.00000000
0.72500000, 0.02500000, 95673417671242107846656.00000000
0.73500000, 0.02500000, -133978639579016576630784.00000000
0.74500000, 0.02500000, 177322639018056145174528.00000000
0.75500000, 0.02500000, -216872639124436827504640.00000000
0.76500000, 0.02500000, 227971593902899500941312.00000000
0.77500000, 0.02500000, -210623229538807620567040.00000000
0.78500000, 0.02500000, 147553154183916970573824.00000000
0.79500000, 0.02500000, -21189954291571938557952.00000000
0.80500000, 0.02500000, -161562297377669318180864.00000000
0.81500000, 0.02500000, 401500431217941771452416.00000000
0.82500000, 0.02500000, -671946342884851207634944.00000000
0.83500000, 0.02500000, 808124534507340403048448.00000000
0.84500000, 0.02500000, -1048778692467491931684864.00000000
0.85500000, 0.02500000, 1175274933484255266734080.00000000
0.86500000, 0.02500000, -1424610228592248222646272.00000000
0.87500000, 0.02500000, 1586391515452221396353024.00000000
0.88500000, 0.02500000, -1610738555053468536537088.00000000
0.89500000, 0.02500000, 1573401072312141167460352.00000000
0.90500000, 0.02500000, -872895355564077938114560.00000000
0.91500000, 0.02500000, 1079818151466206301782016.00000000
0.92500000, 0.02500000, -808639651301457842405376.00000000
0.93500000, 0.02500000, 629970605089739161731072.00000000
0.94500000, 0.02500000, -563505167393592621137920.00000000
0.95500000, 0.02500000, 595348280012454282395648.00000000
0.96500000, 0.02500000, -698110582092025974226944.00000000
0.97500000, 0.02500000, 831762515724024307253248.00000000
0.98500000, 0.02500000, -922052090954707839746048.00000000
0.99500000, 0.02500000, 877113589378631801503744.00000000
0.00500000, 0.03500000, 592220962836199029866496.00000000
0.01500000, 0.03500000, -260100562390302815420416.00000000
0.02500000, 0.03500000, -77120154617263465431040.00000000
0.03500000, 0.03500000, 362394576871226116931584.00000000
0.04500000, 0.03500000, -549878959530665326936064.00000000
0.05500000, 0.03500000, 649524987402540749422592.00000000
0.06500000, 0.03500000, -699876695495431726039040.00000000
0.07500000, 0.03500000, 726687196984687168847872.00000000
0.08500000, 0.03500000, -724841063671096544329728.00000000
0.09500000, 0.03500000, 682419443183229706698752.00000000
0.10500000, 0.03500000, -602278837451519915196416.00000000
0.11500000, 0.03500000, 498862413377320221933568.00000000
0.12500000, 0.03500000, -390068305306962876170240.00000000
0.13500000, 0.03500000, 293162687530466526887936.00000000
0.14500000, 0.03500000, -219193417730717607002112.00000000
0.15500000, 0.03500000, 168508911614300988112896.00000000
0.16500000, 0.03500000, -132904637888595790659584.00000000
0.17500000, 0.03500000, 102704685232779411062784.00000000
0.18500000, 0.03500000, -72583613673226417209344.00000000
0.19500000, 0.03500000, 42037296620720271392768.00000000
0.20500000, 0.03500000, -12443216654219037638656.00000000
0.21500000, 0.03500000, -15182855292536162877440.00000000
0.22500000, 0.03500000, 40911312176920553062400.00000000
0.23500000, 0.03500000, -65997137899872583680000.00000000
0.24500000, 0.03500000, 92213146740898855387136.00000000
0.25500000, 0.03500000, -120318301645132766642176.00000000
0.26500000, 0.03500000, 148570973156582149324800.00000000
0.27500000, 0.03500000, -171957550304358962298880.00000000
0.28500000, 0.03500000, 182144581765314375581696.00000000
0.29500000, 0.03500000, -168747944671812916346880.00000000
0.30500000, 0.03500000, 122766021866521618284544.00000000
0.31500000, 0.03500000, -41190798111545046859776.00000000
0.32500000, 0.03500000, -69419763506808541413376.00000000
0.33500000, 0.03500000, 190855703214661310611456.00000000
0.34500000, 0.03500000, -297351929005295324364800.00000000
0.35500000, 0.03500000, 372381368941299164512256.00000000
0.36500000, 0.03500000, -417200986545430290497536.00000000
0.37500000, 0.03500000, 436474046597122268069888.00000000
0.38500000, 0.03500000, -426745017451231521538048.00000000
0.39500000, 0.03500000, 384736228179029599977472.00000000
0.40500000, 0.03500000, -321920324276763511226368.00000000
0.41500000, 0.03500000, 258678886421380632412160.00000000
0.42500000, 0.03500000, -211789657890163269828608.00000000
0.43500000, 0.03500000, 192384788465941053702144.00000000
0.44500000, 0.03500000, -203651130253543814987776.00000000
0.45500000, 0.03500000, 243314659043489370603520.00000000
0.46500000, 0.03500000, -304740525191029707505664.00000000
0.47500000, 0.03500000, 373115368598382185545728.00000000
0.48500000, 0.03500000, -432633974111641240862720.00000000
0.49500000, 0.03500000, 471424295780208210870272.00000000
0.50500000, 0.03500000, -475245388164733161439232.00000000
0.51500000, 0.03500000, 432896844599855761326080.00000000
0.52500000, 0.03500000, -343191681028973983170560.00000000
0.53500000, 0.03500000, 210477099708575394037760.00000000
0.54500000, 0.03500000, -47016302747730757812224.00000000
0.55500000, 0.03500000, -123275635967522657796096.00000000
0.56500000, 0.03500000, 269004003326469389418496.00000000
0.57500000, 0.03500000, -360348425216882989072384.00000000
0.58500000, 0.03500000, 383067145924066827829248.00000000
0.59500000, 0.03500000, -346625642870132571111424.00000000
0.60500000, 0.03500000, 277369555517512846671872.00000000
0.61500000, 0.03500000, -204019794552926815387648.00000000
0.62500000, 0.03500000, 145908997726542130839552.00000000
0.63500000, 0.03500000, -108233680908937037086720.00000000
0.64500000, 0.03500000, 84860524219660318539776.00000000
0.65500000, 0.03500000, -65810674252384305152000.00000000
0.66500000, 0.03500000, 44255581048854286434304.00000000
0.67500000, 0.03500000, -19302031178780272230400.00000000
0.68500000, 0.03500000, -5915630759777365131264.00000000
0.69500000, 0.03500000, 28480379626512434855936.00000000
0.70500000, 0.03500000, -48956324050693236195328.00000000
0.71500000, 0.03500000, 71388724691415859200000.00000000
0.72500000, 0.03500000, -100201316754618253836288.00000000
0.73500000, 0.03500000, 136390008775166811701248.00000000
0.74500000, 0.03500000, -174989752736304779493376.00000000
0.75500000, 0.03500000, 203912231350143715115008.00000000
0.76500000, 0.03500000, -204990917845839966633984.00000000
0.77500000, 0.03500000, 159055582560988510027776.00000000
0.78500000, 0.03500000, -57208816446009426051072.00000000
0.79500000, 0.03500000, -100422349139121356668928.00000000
0.80500000, 0.03500000, 314970012677335225991168.00000000
0.81500000, 0.03500000, -576492205832082349359104.00000000
0.82500000, 0.03500000, 837283322757501664886784.00000000
0.83500000, 0.03500000, -1046252496082466177548288.00000000
0.84500000, 0.03500000, 1159696648406036734017536.00000000
0.85500000, 0.03500000, -1307839624696417010843648.00000000
0.86500000, 0.03500000, 1491321562064841154232320.00000000
0.87500000, 0.03500000, -1476761464580474182565888.00000000
0.88500000, 0.03500000, 1459949840696976372400128.00000000
0.89500000, 0.03500000, -1424435548805092931010560.00000000
0.90500000, 0.03500000, 1143419856659445171879936.00000000
0.91500000, 0.03500000, -853706219761038362935296.00000000
0.92500000, 0.03500000, 642727422950618374864896.00000000
0.93500000, 0.03500000, -538527061710151327154176.00000000
0.94500000, 0.03500000, 538052666133739359698944.00000000
0.95500000, 0.03500000, -622181480209647711289344.00000000
0.96500000, 0.03500000, 768703946776423499300864.00000000
0.97500000, 0.03500000, -921401141763521929805824.00000000
0.98500000, 0.03500000, 978801498117273792020480.00000000
0.99500000, 0.03500000, -861039960309371716501504.00000000
0.00500000, 0.04500000, -436280864550801171808256.00000000
0.01500000, 0.04500000, 89840878593483705679872.00000000
0.02500000, 0.04500000, 235341812749316726456320.00000000
0.03500000, 0.04500000, -478526623575924692484096.00000000
0.04500000, 0.04500000, 623596846838350971142144.00000000
0.05500000, 0.04500000, -698394718659747696869376.00000000
0.06500000, 0.04500000, 741152906412110450262016.00000000
0.07500000, 0.04500000, -760874358175774422335488.00000000
0.08500000, 0.04500000, 743914294975409598496768.00000000
0.09500000, 0.04500000, -684164465330892130222080.00000000
0.10500000, 0.04500000, 591338990451594922819584.00000000
0.11500000, 0.04500000, -482218228121124164599808.00000000
0.12500000, 0.04500000, 375263662093825617166336.00000000
0.13500000, 0.04500000, -286285800104868381196288.00000000
0.14500000, 0.04500000, 221514461331915368562688.00000000
0.15500000, 0.04500000, -175552343052680542814208.00000000
0.16500000, 0.04500000, 137604390850093683572736.00000000
0.17500000, 0.04500000, -99618287157937526800384.00000000
0.18500000, 0.04500000, 59331559561828763697152.00000000
0.19500000, 0.04500000, -18168190276172370673664.00000000
0.20500000, 0.04500000, -21518338096590370111488.00000000
0.21500000, 0.04500000, 57805954336157748690944.00000000
0.22500000, 0.04500000, -89946501641769588883456.00000000
0.23500000, 0.04500000, 118673115588628290994176.00000000
0.24500000, 0.04500000, -145667869972451228123136.00000000
0.25500000, 0.04500000, 172396321987091075432448.00000000
0.26500000, 0.04500000, -198720170993168962027520.00000000
0.27500000, 0.04500000, 221461573603870598234112.00000000
0.28500000, 0.04500000, -233560594029354978115584.00000000
0.29500000, 0.04500000, 225174787789560668487680.00000000
0.30500000, 0.04500000, -187523441228037998247936.00000000
0.31500000, 0.04500000, 118105797123247496495104.00000000
0.32500000, 0.04500000, -24216346330907874951168.00000000
0.33500000, 0.04500000, -76305526352209137106944.00000000
0.34500000, 0.04500000, 162707906250402483404800.00000000
0.35500000, 0.04500000, -224201669904489640886272.00000000
0.36500000, 0.04500000, 260464388019780663115776.00000000
0.37500000, 0.04500000, -273614154639361617952768.00000000
0.38500000, 0.04500000, 264282601741103935782912.00000000
0.39500000, 0.04500000, -237230067753334949806080.00000000
0.40500000, 0.04500000, 203809130797604305633280.00000000
0.41500000, 0.04500000, -174406439246720273481728.00000000
0.42500000, 0.04500000, 157644858202425349111808.00000000
0.43500000, 0.04500000, -159751405948047496052736.00000000
0.44500000, 0.04500000, 181849736578135373119488.00000000
0.45500000, 0.04500000, -221669243566814604034048.00000000
0.46500000, 0.04500000, 271129351795074230386688.00000000
0.47500000, 0.04500000, -318183835018604746637312.00000000
0.48500000, 0.04500000, 353741838252717807501312.00000000
0.49500000, 0.04500000, -368850739177016791138304.00000000
0.50500000, 0.04500000, 352079126428558521532416.00000000
0.51500000, 0.04500000, -295574485547716163141632.00000000
0.52500000, 0.04500000, 197241912620617750806528.00000000
0.53500000, 0.04500000, -62840899518469913968640.00000000
0.54500000, 0.04500000, -89999571420420211998720.00000000
0.55500000, 0.04500000, 233727925400452653383680.00000000
0.56500000, 0.04500000, -337868596579558225870848.00000000
0.57500000, 0.04500000, 381152895429244107096064.00000000
0.58500000, 0.04500000, -362678306259741261692928.00000000
0.59500000, 0.04500000, 301487958838379123048448.00000000
0.60500000, 0.04500000, -225159868976945529094144.00000000
0.61500000, 0.04500000, 156742605936889629245440.00000000
0.62500000, 0.04500000, -106944369108870489964544.00000000
0.63500000, 0.04500000, 74003057006504264597504.00000000
0.64500000, 0.04500000, -49745451022293005238272.00000000
0.65500000, 0.04500000, 26906237597948535898112.00000000
0.66500000, 0.04500000, -3312959212019258490880.00000000
0.67500000, 0.04500000, -18597067659627957583872.00000000
0.68500000, 0.04500000, 35461562657752540512256.00000000
0.69500000, 0.04500000, -46859601108982474735616.00000000
0.70500000, 0.04500000, 56616090475196131049472.00000000
0.71500000, 0.04500000, -70563372840960718274560.00000000
0.72500000, 0.04500000, 92439251106234344931328.00000000
0.73500000, 0.04500000, -120830062826784638894080.00000000
0.74500000, 0.04500000, 147868145779958488236032.00000000
0.75500000, 0.04500000, -159050591844636773318656.00000000
0.76500000, 0.04500000, 135996710862945165246464.00000000
0.77500000, 0.04500000, -63862364321791577423872.00000000
0.78500000, 0.04500000, -60460342643144502804480.00000000
0.79500000, 0.04500000, 234846322174870727688192.00000000
0.80500000, 0.04500000, -452713732025314611036160.00000000
0.81500000, 0.04500000, 692118960792621836926976.00000000
0.82500000, 0.04500000, -905164861675227658059776.00000000
0.83500000, 0.04500000, 1061961070875972240146432.00000000
0.84500000, 0.04500000, -1173160749777551309668352.00000000
0.85500000, 0.04500000, 1312338878291216653352960.00000000
0.86500000, 0.04500000, -1391325255924567760699392.00000000
0.87500000, 0.04500000, 1284225210818703373893632.00000000
0.88500000, 0.04500000, -1269370482256411503886336.00000000
0.89500000, 0.04500000, 1090839946715810867707904.00000000
0.90500000, 0.04500000, -824120729465776668409856.00000000
0.91500000, 0.04500000, 608215162593463169449984.00000000
0.92500000, 0.04500000, -486418112076290029780992.00000000
0.93500000, 0.04500000, 458390049374783299125248.00000000
0.94500000, 0.04500000, -513941232908684601851904.00000000
0.95500000, 0.04500000, 638452612545543896301568.00000000
0.96500000, 0.04500000, -803839537115183557115904.00000000
0.97500000, 0.04500000, 930027865353380589207552.00000000
0.98500000, 0.04500000, -920160405045193197223936.00000000
0.99500000, 0.04500000, 738172627709538351448064.00000000
0.00500000, 0.05500000, 231548233582364093054976.00000000
0.01500000, 0.05500000, 90350820705361442373632.00000000
0.02500000, 0.05500000, -360981458365263776841728.00000000
0.03500000, 0.05500000, 544530825454363906932736.00000000
0.04500000, 0.05500000, -646317798303159841456128.00000000
0.05500000, 0.05500000, 701430094848926207180800.00000000
0.06500000, 0.05500000, -734154359341643923980288.00000000
0.07500000, 0.05500000, 740235657656222538006528.00000000
0.08500000, 0.05500000, -708015323344683476713472.00000000
0.09500000, 0.05500000, 638694244388822432350208.00000000
0.10500000, 0.05500000, -544896403248531193724928.00000000