TITLE = "Linear advection equation"
VARIABLES = "x", "y", "sol"
ZONE STRANDID=1, SOLUTIONTIME=2.45, I=100, J=100, DATAPACKING=POINT
0.00500000, 0.00500000, 1643971033424214462640978566394703845153850628013821608137124990469986243097865510932401538459683172829833986048.00000000
0.01500000, 0.00500000, -1782956774919511085667312682959666705215085829475294584964320305286660929592771247083846057909902899557125062656.00000000
0.02500000, 0.00500000, 1805379536815354057414411707738471394323903955367682500473504538526701064661854840729019765402265899532386566144.00000000
0.03500000, 0.00500000, -1870829493938642988028695117051740179204148635822802261720746145298972886182792107624362438840137457936961110016.00000000
0.04500000, 0.00500000, 1830098937666681684681321268343981917483608331798626792422046113708545929261248726387318575210383800061870997504.00000000
0.05500000, 0.00500000, -1856036229011914965264448829002866623163152776063770828267449397634864925862670858041561171546079964748264243200.00000000
0.06500000, 0.00500000, 1801832601501196591990220150043044211317373965751843101940103041077460911491027470433228029936596948787671334912.00000000
0.07500000, 0.00500000, -1774553681235666191546485833480091435766491939979693198739232003153828826604304946476202509556922904101114609664.00000000
0.08500000, 0.00500000, 1727063073382743562822502810594877582620445208646342361737017156020578568308979027395723414266726117528918032384.00000000
0.09500000, 0.00500000, -1620673967246617778698090946533063963806970724264067911682261624091987799725810558280465942235574310869739241472.00000000
0.10500000, 0.00500000, 1471174671459326031288876694179877702539890584583605355036482110649249387216149210267632682369497234079160991744.00000000
0.11500000, 0.00500000, -1286293049477380127955671417023907108300678515481274866521909281632891034299647362963894376474661498715149172736.00000000
0.12500000, 0.00500000, 1132250115974663733408582662660267942534976316021252022897462815434287376367287762563965838569242182689962852352.00000000
0.13500000, 0.00500000, -1025193647745941863545455985597959064046424079135745212112611307447277908487697287392748958034015266509537935360.00000000
0.14500000, 0.00500000, 934596270085436959976743430469267228848625083075964110717864878206184664364451669778950113638911555036136865792.00000000
0.15500000, 0.00500000, -877410513081711822793781175542746359157500577437524544022900780064711217811376905700986132889232428323622092800.00000000
0.16500000, 0.00500000, 809707395730409111315021808767382684085853376264912121873567834479527482580906869221749583984820201808575070208.00000000
0.17500000, 0.00500000, -720624215268787111396070853771466809674340482158096519542462069056209068689177702090843237579347178755375235072.00000000
0.18500000, 0.00500000, 626316762642528948858042796309813478609961973399974909954845514703935320944941718483990857853654530875960852480.00000000
0.19500000, 0.00500000, -518280869128424799778977766513898400639617082643443273375101348399018301750788344233648428895939914478024392704.00000000
0.20500000, 0.00500000, 406994731667212536148480560121753838651878265198618656478719544610296691982560184720650575512779300293318803456.00000000
0.21500000, 0.00500000, -302791796782482136481032784815752363732326851127346838331378896693040151092681396119981598127306638997338456064.00000000
0.22500000, 0.00500000, 196542445131725584840523393146574312034701346934277799846417062078613001767190187225952474305521242625481375744.00000000
0.23500000, 0.00500000, -97920762776126794322942269739505446205789146484493874531033565891677461254216683204390324075882755672003051520.00000000
0.24500000, 0.00500000, 8804748440681708527193515550374944552814458691919166809945719599292442377115824886791704990898143800001036288.00000000
0.25500000, 0.00500000, 75192960266850822862196853189891931895802237978346539607059127970822320797699351445843674891203057910810673152.00000000
0.26500000, 0.00500000, -139127598708135817837017887737186226834563415933363996785847491372284571902103421458005948149085856425058500608.00000000
0.27500000, 0.00500000, 199053780117960150837094730529968924157070795004241502381832385331298669070260616496965592979799880349614342144.00000000
0.28500000, 0.00500000, -244299494006190360990915813214653918006197229677694362060976265989320788740385800233873311683492954165997469696.00000000
0.29500000, 0.00500000, 240678017846216039641185240732214234388887882432672553451827830385936806320625556245270394040759909106459869184.00000000
0.30500000, 0.00500000, -156312674136240936305789884419123436651849235801883387711690754416109818956543279886517664151777423835451621376.00000000
0.31500000, 0.00500000, -17129890201800749954820594406794341423104190588563858027446010390456999900294743414241818934199611914033561600.00000000
0.32500000, 0.00500000, 327149460166100848209783319666192748764554883591128625011347950291851093199627020829829247429473399739472936960.00000000
0.33500000, 0.00500000, -869626384429124790681241996748009262313963186875771287901505612050563447378959673598651666453084405509130289152.00000000
0.34500000, 0.00500000, 1750827476667709044612039157713730748876214469815081095210890866150172150846374573698032146882383191477648883712.00000000
0.35500000, 0.00500000, -3138245750883418294709943404076009555753867276973098218412864770298212777092952827643089337537198935632521461760.00000000
0.36500000, 0.00500000, 5254824576436680829708862992897677791390899897939065491371846715222863278311094115768345706195177576809331949568.00000000
0.37500000, 0.00500000, -7974042511228190959450978240597198078200360848109213732992203254180595087039548557335027903705980628594843451392.00000000
0.38500000, 0.00500000, 11904540921426867323479654668366126972219615331054282777949514787115498037573700863343668417951405541999754870784.00000000
0.39500000, 0.00500000, -18007312339787343301225199634504954626582066419160351925481004680879805341107351231271979540934819062133104312320.00000000
0.40500000, 0.00500000, 25866731666108445310897391559976928955287576905064555955350551938492863929733600573321273238992469161652554563584.00000000
0.41500000, 0.00500000, -35810886303842195155404822586590905984960910106925863237038797216647525741578148249260113328384138794650168197120.00000000
0.42500000, 0.00500000, 49112600380351712833169247034828795575013411857424545667142156408068629692529322535567917134601038029230406893568.00000000
0.43500000, 0.00500000, -66340376883434711279146638333897881936284037296818929635077867892901552362338299507064510482816014228169183723520.00000000
0.44500000, 0.00500000, 87494486725131906171381624134770572571573424698068890717657526306790222774844355284368370876679307277130319003648.00000000
0.45500000, 0.00500000, -112508299610294886099383019272427623854407593357122074929905545479656831018026228566096059983102422826631879983104.00000000
0.46500000, 0.00500000, 141881256845500027778463447491951630330774275665198707153002506657582174701248829863064048537381133017507753361408.00000000
0.47500000, 0.00500000, -176527542359809131411309593741105367712442012589956671968224551601867840001877300186074207290020672247825835229184.00000000
0.48500000, 0.00500000, 217237628527692898469381710155614756387863170573329582984149288949135050655638919471032635095942810000541058334720.00000000
0.49500000, 0.00500000, -263998525714972740323793295431423491175086774084077052364382095503017969321442296945741798679753919709940878934016.00000000
0.50500000, 0.00500000, 315459382306603012840761575128258230378418168243177371671058760031255180721524471823736828950901412183829093810176.00000000
0.51500000, 0.00500000, -369484362926390264112671277925782127154079730721670460497226983593383383046326484103772489289606849420275692339200.00000000
0.52500000, 0.00500000, 424304764617940489042016583283963702625847605720423655400322649188108931308258271914759676297381045398771165298688.00000000
0.53500000, 0.00500000, -478545052495405588045903634207473824637202398749917497409152949652273525937074643609393607457437577506008556634112.00000000
0.54500000, 0.00500000, 530409516557911721877020355696809592693416069948263636329521123417055036528812330755484720390332998709052740468736.00000000
0.55500000, 0.00500000, -577573716069119826203126666374023972020832418972236315685933083209863625211543625155234794602899621198151672659968.00000000
0.56500000, 0.00500000, 617054713223476259064591747081852738925286431897002166356683221177246558460537450754061595103030217368435861487616.00000000
0.57500000, 0.00500000, -635681272698658059871878012791953197429092100770921152576133366393031736702083055325030983303108665429596382953472.00000000
0.58500000, 0.00500000, 629501415418376648704401289353797446142528992522073763753568382925072757655979079925454877858105571853665283604480.00000000
0.59500000, 0.00500000, -623719856610523777919465548827995400318870259413968333793830039543084182649278841376364934688289028314685516021760.00000000
0.60500000, 0.00500000, 618306940283034458188271394407214598535032470870740853989996953855403995459029960112851814724794386562828050890752.00000000
0.61500000, 0.00500000, -588368834247322154209587287219796929481242164156244444409591009896992775887155071904898336058537466951182208466944.00000000
0.62500000, 0.00500000, 537528940041277566472629087531219387522365923729150783073311109003771901230207008076263768939700633984702569512960.00000000
0.63500000, 0.00500000, -477788564969049074637129509691108458401319528221071113799205656599558847166759838640258588610103612460135532724224.00000000
0.64500000, 0.00500000, 412330931239501896410117207568533029861944893800159720262615470692721845949766453864366987632427868056668153577472.00000000
0.65500000, 0.00500000, -345708823599154306389640011621047857046916848267934994553140136493335048102545479910102874739715842758105834192896.00000000
0.66500000, 0.00500000, 282994064953130226917947575913496546305898291452771775497725055158259210926636943486113081518752483930827172872192.00000000
0.67500000, 0.00500000, -226973324456907711417149926076561450350787551447938089054322769250856628989279487513676953451059523110455243440128.00000000
0.68500000, 0.00500000, 177060976806344723258088662427637663785552933259883818912628602934811708599072215876980670634656461358984104771584.00000000
0.69500000, 0.00500000, -132391882993740972309577884616783537918586719536531999263556184122702221513793300760245649972094440011162009468928.00000000
0.70500000, 0.00500000, 93694046591447063896065748337023262082958581427331522986084709131202269944114313280327662051116084358183322124288.00000000
0.71500000, 0.00500000, -61750292453654260198396458648013456371635736008555850839988935141396918413001960007606081543534531632257694695424.00000000
0.72500000, 0.00500000, 36201825262336140785143763910241819008890801825493419496713046396344569958955015232999707042007076934060899041280.00000000
0.73500000, 0.00500000, -16092608925145927125410322061849676498503273523763348618898337073800306079145656829996452686419080647469885816832.00000000
0.74500000, 0.00500000, 611976913352194177393495873719274908659539282464720805567119607130960240812311736751089834331976080932328177664.00000000
0.75500000, 0.00500000, 10928715009870971049231202692688272765192894743223402772514989036054019121049368055822124941720805127797094744064.00000000
0.76500000, 0.00500000, -16299707463348281200033718964927062075606885741588652079172656968955749622357686475235494144196528572555077877760.00000000
0.77500000, 0.00500000, 12728490538759920468831991073394475868099502346584909114862481490409899563420823048712959988313543203050034823168.00000000
0.78500000, 0.00500000, -19220670801993384403019094466157333437204859446518045007348245960341615040368978940594668523558709330624659849216.00000000
0.79500000, 0.00500000, 30246011435954481504702410939112988954899529329775106691121377176093841370686404773874137884462233421287828488192.00000000
0.80500000, 0.00500000, -30706847927142387688553786155271042777884687929319000330602519163442519886327717366956062494482233061909374959616.00000000
0.81500000, 0.00500000, 30539601500548655595793017524157291974969851584149602407191221097265409759049982827977533813231970978330157514752.00000000
0.82500000, 0.00500000, -29961520309111091057489040288830616570568221039151901426851051036794146754224397473579836867113617719365256347648.00000000
0.83500000, 0.00500000, 28662018130808274791082212921838250470166580553912196399234260780746329084806959109962755521097608846826975264768.00000000
0.84500000, 0.00500000, -23023948505759179046358973818095316927820947488213686305739043519771932035584934893410714619518087681783734730752.00000000
0.85500000, 0.00500000, 12576049581640491058464019620677183872359236442508600635579828320783203556748309211421551156556518069782760652800.00000000
0.86500000, 0.00500000, -18373177116717324782265402870144279222432274302744575553773871925639739639916931316761415241399571921061520867328.00000000
0.87500000, 0.00500000, 16591631910452813019632957077144265984360931790547181584033500716386780410432623687681746394374686072770498920448.00000000
0.88500000, 0.00500000, -14525075645747178647497262206004605095787932962359222508686728040905608362338513074400660231747623950362878148608.00000000
0.89500000, 0.00500000, 11745218879253067893659384280543137160938353349572175884220347327822484305067006119576334233269168809393231233024.00000000
0.90500000, 0.00500000, -9317893149102122865277961675780718584106832040919913609085668095262168480292923838524123501482269638250511466496.00000000
0.91500000, 0.00500000, 7119075984781919744048709154720346233462197776559092451679715899829027709132184497299399105420291812455805353984.00000000
0.92500000, 0.00500000, -5330792946432702947168543519054726308104382089510286487570420633787961425773843357415825540179895419245055442944.00000000
0.93500000, 0.00500000, 3783729288358134637554637471903596236290490889877086072005628115502227068016913951190034415686821620166602784768.00000000
0.94500000, 0.00500000, -2404801008945136815936652726920150627906533425743738201943095784016181069068046263454361112517876809182522376192.00000000
0.95500000, 0.00500000, 1256543556546299580485735976522253657191343696958937951367105262296705987412367852271010542760059175461705482240.00000000
0.96500000, 0.00500000, -345282758486894631392457499465835507698885094257222288407822968426251077491179845382102957824782066232919588864.00000000
0.97500000, 0.00500000, -425037783377462043880551952035408201581355639099306351380562799727912559040762264282466593720269550102624862208.00000000
0.98500000, 0.00500000, 1065426140069105775084095289569704539707949392659452485245814408597653012281859589983945785602035577616295002112.00000000
0.99500000, 0.00500000, -1477946947290077742409597123884134462749123582807280434685638236740501330170314662077536646047783226336752959488.00000000
0.00500000, 0.01500000, -1867072372064298590209251539520398823077996987956671931316494496663400065880058186579088391977109209819562115072.00000000
0.01500000, 0.01500000, 1974628526167407446429540213633981009012669489292894484825678891548157343256234154194834746587444523306686873600.00000000
0.02500000, 0.01500000, -2000418401213164569613149443955971570882636481437240698087939289148390091227903061684922316046846823103043993600.00000000
0.03500000, 0.01500000, 1960399950870126280722242597578252799639601940729496528845335036486665603346295186747231705952399243674384334848.00000000
0.04500000, 0.01500000, -1863929450171158425329928725366044082661537686465016182326867152623623566288982323532766024027045017286783008768.00000000
0.05500000, 0.01500000, 1768482446780508358210625814115596528273179434067646711263622161381122637186030999215407119235528700979237093376.00000000
0.06500000, 0.01500000, -1683082966207981179966531791449982868005682137336187409246932382921583664361126507621883382444801188137011249152.00000000
0.07500000, 0.01500000, 1591602520073516309561640786086847924430398787401211511536428625673361118990797508270433953093856861641144008704.00000000
0.08500000, 0.01500000, -1469357100006977217327868332833791167209114550469725684429812584085102620591149130429056371055444086024426225664.00000000
0.09500000, 0.01500000, 1313985345403882716153285678122805577326113709399070429914024989634306328527541824487568551393317963538387435520.00000000
0.10500000, 0.01500000, -1150856917089200959788327352178212963339481683655484596482224827119189730074308215379668688113965196719612231680.00000000
0.11500000, 0.01500000, 990974061408080231092046324126725545547126266977586956867568049631383767481966959523886051303111637017313673216.00000000
0.12500000, 0.01500000, -856704984663500725353610628983972511265242536696382628157576715091216381021750560592531914823013908506734493696.00000000
0.13500000, 0.01500000, 741423299229936587914480839168951267356692468897603468286370990277540000294738933689805820304939171793585831936.00000000
0.14500000, 0.01500000, -667505411363620127314470280040396334889073524477073065237046000104168603063896416830810797760260267808447791104.00000000
0.15500000, 0.01500000, 618227976290779738297684157235293454621930516979601379520630005664511120520576888229392597940625586919512735744.00000000
0.16500000, 0.01500000, -560013199726706359370005112466450628806031426582122522770242846550995892227232556945365200260754784281627197440.00000000
0.17500000, 0.01500000, 491677590317416694815436851239561173535277326457947157220186319682543891879428140426086490447261980779232624640.00000000
0.18500000, 0.01500000, -418172052089304784326502058857591277134867947646102371621816413975945846726503884033384299342527666268594503680.00000000
0.19500000, 0.01500000, 338061984224089918806270776874703191369079618540759840389339679439153565874815927648742451490586211679918358528.00000000
0.20500000, 0.01500000, -257542936771097819568806825641990172011494674357968309977658607690962932859911375959429405079082118935033675776.00000000
0.21500000, 0.01500000, 179810705402204251882354907801962645171030878185711140134174655808858404938043629769703931554735594443955503104.00000000
0.22500000, 0.01500000, -110384215977959587636554166897661794032028735474345549597771315917653180126375836262466936477846910271471222784.00000000
0.23500000, 0.01500000, 48583055863267263696102820894811527136763859650196033254540070071088600990100535402775060490154932625685348352.00000000
0.24500000, 0.01500000, 10227687122884737442407101147791136960485032084465463010166866982616653677826304420674888266811078019494445056.00000000
0.25500000, 0.01500000, -62326347129706040579942810382627398006987429510439933691599903635429111489721532585260347430205276052382547968.00000000
0.26500000, 0.01500000, 102501017151532977079845328483169460427137631749859252481400727571833020077230204364049267579233970304218824704.00000000
0.27500000, 0.01500000, -131871704933334955536303988032733283533293510978207718723872388090032066040327382969029305335626580765026811904.00000000
0.28500000, 0.01500000, 135174780151492937769930448222575573375353092676682791541877069521336455140403898092432660488271154760401289216.00000000
0.29500000, 0.01500000, -94860371775443044640812087087774930034657240967670666404581110217704599375726879431020674725122737975741906944.00000000
0.30500000, 0.01500000, -15190012493955527884554732174940177924649480985588186004252794320157076657359804687148734507950742501221990400.00000000
0.31500000, 0.01500000, 222061430347935189228871691106010520904497001916960500585145294081223889031951514724758408168499036416263585792.00000000
0.32500000, 0.01500000, -585007697004071733353417007113319095327717578816516396831207011289345043057107783019540708341866853841005182976.00000000
0.33500000, 0.01500000, 1186643270270666122040929618480129618395120522303826239197141046083164228255230544633662728100221708091000881152.00000000
0.34500000, 0.01500000, -2159351633747206035801707952633813769662402652811477352964898276875158914411754075372308205553044373319576453120.00000000
0.35500000, 0.01500000, 3682234887316300414816062098118434014097886320450703410360339585091674305382185606491682296146504244569785237504.00000000
0.36500000, 0.01500000, -5981839282260874083374084520493882137398612019857901018290970566417437171731746547094258329012126955749408505856.00000000
0.37500000, 0.01500000, 9053824530034467180929685281452688382816770474557271043850495635563563818440103084754018084100562029017649119232.00000000
0.38500000, 0.01500000, -13605776973085018157488588762937498339400860199107853047937805055483585702369177570127699413950196315045779996672.00000000
0.39500000, 0.01500000, 19818802618617048892474832302655888971438832453462782964601016799002361049592948723800265432542907436088296472576.00000000
0.40500000, 0.01500000, -27640617127115833745019935986915074213392981646893417477355689088166569767169325218080194161656117461759389859840.00000000
0.41500000, 0.01500000, 38216370622659110063084770161298614362070282328399924388719917588104254756679041057133583467285250281870901379072.00000000
0.42500000, 0.01500000, -52402692296818667284936245766791790332079329297225664190130474501269811152065984794196823551997297643115717328896.00000000
0.43500000, 0.01500000, 70411772761723863640288052777804530726433881927176937407968469700777077249631121509067305555025910356054932193280.00000000
0.44500000, 0.01500000, -91979414386392178879130751718510914847402340726877465589254032996728419944996289441278384597496402651963476410368.00000000
0.45500000, 0.01500000, 117246777792834582718655461260996815098120763026525285223515638252842608794388910623797526490182871298978768486400.00000000
0.46500000, 0.01500000, -147151948100391235990847566722264876525070410972104266677326906699455241686640579917327286592354291374997656043520.00000000
0.47500000, 0.01500000, 182964742288661355735246860391584125751808974097336846629569247207245886942068932004854438865251664104152377589760.00000000
0.48500000, 0.01500000, -225464256662584450557840070544249092320719066453910397892034006495352700481680088304099449199220443492254174150656.00000000
0.49500000, 0.01500000, 273915358634397341976317145296773410930481517532064597390494522048139135619958566801673095756016624602547646103552.00000000
0.50500000, 0.01500000, -325930952984390552251295808953313610236698390705071854311104089495142478311197143271817155721968662237805107216384.00000000
0.51500000, 0.01500000, 379087890991164981331145771579258492984772495220582954263366409685705554989631338753914631468173304166175811305472.00000000
0.52500000, 0.01500000, -432221722156989625806694848604456780342164932513075509745910989722911731174182224148692882794186446166283975131136.00000000
0.53500000, 0.01500000, 484464153504063976861889730098178618624249549622102011922254698827074401191771421470844821736358500016992324419584.00000000
0.54500000, 0.01500000, -533894216861916319517117827845428799245698348151769890521152005067693611861053949977971648922940172415852074762240.00000000
0.55500000, 0.01500000, 577538172496112686889407391630033844390930898031437434382183995133535415288769071265235793550540076032997183193088.00000000
0.56500000, 0.01500000, -611800590179416373839507529702689030144601037110960308593937992091539300415997314550306684754789640269201995202560.00000000
0.57500000, 0.01500000, 623673283976319563447507071057402680723038536527406468667107792961978094043428045083778614115009123768511286476800.00000000
0.58500000, 0.01500000, -619454236391899809189570231465301455947115325987446272074330369212604451332036057409315899816227136952784000122880.00000000
0.59500000, 0.01500000, 616519744176465963461279029404144940714543848925558759622190392475973507017133293894495598245199139588303889629184.00000000
0.60500000, 0.01500000, -597544854221504738280609586421423811328219495550719039683589560970000539842885555990803802978573055191730918260736.00000000
0.61500000, 0.01500000, 556043265013115672141493077193994163560258519803411180649934449628791252585246487569146916053113280536188693774336.00000000
0.62500000, 0.01500000, -503943637685330150229641653058470988249091149579296573247853262234794905066495067064187305263831772690401974026240.00000000
0.63500000, 0.01500000, 444019984201440138617492406605386286564856714703897654985649462157560114264857317776065696608901277090375612235776.00000000
0.64500000, 0.01500000, -380104288919001163202898268026390034920916576828564202028736856433329025628742162302166707630765382211567827812352.00000000
0.65500000, 0.01500000, 316471252459138393583809853614870642631685760545245830609370800770508298454017008716950682090667704510682857734144.00000000
0.66500000, 0.01500000, -256547827196975475331797283828205113631070243834904484892389643262230462313051686165847440138669754465577353609216.00000000
0.67500000, 0.01500000, 202065689776813492981769853767710297480379914794681243974118184120903817345647716032830975035684509714069774663680.00000000
0.68500000, 0.01500000, -153807274955260929506697935894528311315097086240643768695478203457339242672497597912333542938842163124503224254464.00000000
0.69500000, 0.01500000, 112405898724623531492490214193387218301356947804199382307813886285760398022995528189732325103960836700971301076992.00000000
0.70500000, 0.01500000, -77811635264194556118789630348880873333968582720728843459132957084165491100166958934450754710113665224902262652928.00000000
0.71500000, 0.01500000, 49323115912475786162656685790535186059770395271992147695485326454249935345089016163139362362194363103956739031040.00000000
0.72500000, 0.01500000, -26253011235532294879339885722687294009651057198040715000778465678223253076271017532004736929746357639125680521216.00000000
0.73500000, 0.01500000, 8074239837860368186223822069825831405450640386936235267646628914066120757206377684967270307970761151564247728128.00000000
0.74500000, 0.01500000, 3930811484457773427302857950960829546834013208178900738337731097428893153476955289871491643371141839924238483456.00000000
0.75500000, 0.01500000, -14327890412425604041412270496296272930212843876657053972349382560009347111137020210372429281993924711517939302400.00000000
0.76500000, 0.01500000, 20853003479099774156578109434458389204161180307205984147469203520695692110872218619822412455399594857654707552256.00000000
0.77500000, 0.01500000, -29045733665585784690845629051601389179533986387095710970577975934669504902394775733252320999186498585314734374912.00000000
0.78500000, 0.01500000, 32313813558319061948318852005070008844324061928923526455007887739587598674424873987513755633867123516589947748352.00000000
0.79500000, 0.01500000, -33959059626626086023259453842660948588979040565301528478904438314783862525902882104214299634991044921160401682432.00000000
0.80500000, 0.01500000, 34451115315243877195645832223523683053151133524136278161009881567648185619209872441946535425228781632556789399552.00000000
0.81500000, 0.01500000, -34166243100067737762492291532126166025976994629864460018232890188120998655553705642998394463413813890481137909760.00000000
0.82500000, 0.01500000, 33112551661831232841307760998430983578253311695582631832848147181283039142265789227273623113037514150717857726464.00000000
0.83500000, 0.01500000, -30934762355026703165155779892226441491956051525086988192157226510289401601485252193506024363084733466127196225536.00000000
0.84500000, 0.01500000, 23482400436992292291187744931426942208455343191675909174393923508975998640228413006248006178847437432533607776256.00000000
0.85500000, 0.01500000, -20511941846886716288989110824873891845981948115712874369771597651142172496004944868639159785966006178532133175296.00000000
0.86500000, 0.01500000, 18155835326099088386312903014714007274177960013659585699856661201221800909228459312082542475771516155844982996992.00000000
0.87500000, 0.01500000, -17278118000248815495934728120051179224695571953975608662463165822002864697292094619049505361038565946184725168128.00000000
0.88500000, 0.01500000, 13846918469026015077563551911578197603914131157216933618553305155136936519763468775372762005573518079514749435904.00000000
0.89500000, 0.01500000, -11207118903734846050957507644863801018005956950808497874586775354608890254344056090187549747056469794039202316288.00000000
0.90500000, 0.01500000, 9062918261421196938273885717239330633151446969342802271282792694312586426785619415185745276381043708623388147712.00000000
0.91500000, 0.01500000, -7080192082155551943732212251247852693217336810634381152046013332270776265362634846423675669346343590660440850432.00000000
0.92500000, 0.01500000, 5114933617839165032170977191685658875209142798718926090194935766437805322539964788089170495242466878148086595584.00000000
0.93500000, 0.01500000, -3339910707976369204416142892347912661627078159912200512575144471026013564502473878756972046196326683080556281856.00000000
0.94500000, 0.01500000, 2002215160503349537026433440937227836675472178009524348496436893028984892504566621660307089695864233330959450112.00000000
0.95500000, 0.01500000, -853465209200617338296601016700953001558928280985006347579488849245246990069924390280490388833423051175527186432.00000000
0.96500000, 0.01500000, -9668491659195212919962726388072305147572281858319528987025372979515243494317839014681960648792824083759759360.00000000
0.97500000, 0.01500000, 776246561278837853391329896657168631312945665589824068324171575103665551571124126822313021418887577459272712192.00000000
0.98500000, 0.01500000, -1284207707057657401973848710729738857226936811882213989585944746454933479918622156470132744880827174819496722432.00000000
0.99500000, 0.01500000, 1641864586441579998173600320727196545027868921018786153768031916060689459537967839982416017425761592422829129728.00000000
0.00500000, 0.02500000, 2094569880416744092315891468896446173945429354105393271432393084616484623377166630290256774811395831849537241088.00000000
0.01500000, 0.02500000, -2187562828149528930424347138451517702864777006166320130176680677561381388013042707516593759005647652199038189568.00000000
0.02500000, 0.02500000, 2125020303986199736866419438578557561567316979454663777530847558576224414637448847783562536822421860121449594880.00000000