TITLE = "Linear advection equation"
VARIABLES = "x", "y", "sol"
ZONE STRANDID=1, SOLUTIONTIME=3.9, I=100, J=100, DATAPACKING=POINT
0.00500000, 0.00500000, 147309489003465709436272604030887431525509679576923511178535111495763938209783172638809976673740724194803347389905117000371841522815018628065616536369260430987589777997755311192014848.00000000
0.01500000, 0.00500000, -141517163586049893082538989156864790932329230656943705424795824508417844322592761384934923004532066901611625442052786392238182461633387672594427187064588600028355348558720047903670272.00000000
0.02500000, 0.00500000, 151133157709739940617104114145909803188343609046843215509348811614832079691049390037725893021961284441186983754704247984033197647848692032477952871960164456057005728085708956621602816.00000000
0.03500000, 0.00500000, -161758291226641064844499417298333434089373440822862335876790075760618398206206042914529960050982413709146867757089416958189646404003370024179180685050592310631090461878956168786739200.00000000
0.04500000, 0.00500000, 165902232328355247814900429912069150398346273536137599616827760888566640130334207165537795924018676333858275107840848397728729875061735885959798793687692192233431503046089670972669952.00000000
0.05500000, 0.00500000, -177026278982928798374840269330539428856825444816525155250067169303195345296109955294323942766466326542810256366354112294488180360966375002020302032235372380143651292897793230103379968.00000000
0.06500000, 0.00500000, 186712121634353674842900331429967824192694379358625454400776205559576819897105708340570565465802114301707264047004770826106861778398402338270601135494584690682481608363076009251045376.00000000
0.07500000, 0.00500000, -187254791236708781336263065217827575638878462207123106971889450404244779853835513793955012117513269940859031550962295936935632856697455655288332534300946567137368727916751449722191872.00000000
0.08500000, 0.00500000, 184060083852191503830505958851940177290120111166264742916268460467276271890933458237901335462841048279630035193479147081494095844152781989445256059560195953794890815540502763698913280.00000000
0.09500000, 0.00500000, -178521954270761223238385724351977905579270059158376600684834651214373728986132207519499170254746609864980868433006455007351579594737481842439090916343028928186001120120790486372843520.00000000
0.10500000, 0.00500000, 173389118863626239853924279620245990492866234106045444973624676073217313188897795609819497732329293311441760146851471504512110963511082015943883179469561309786552780406924311414177792.00000000
0.11500000, 0.00500000, -163121189591165669191990038757264396994935022803125502621825409127981900453367793459810282786847354226392204533743418604324603689543490801037248064416870712340420584698808033876115456.00000000
0.12500000, 0.00500000, 147279377983997132865863932870418055425641614782487307523050313493331649308549438162416174543257301844423412155809947234871324924117926081834317386103747514089255173091903132913369088.00000000
0.13500000, 0.00500000, -131775450579186642505717336228625793570750454040923221236190520664702581339183701464410398475671473336545741485802160160427272998766992807455306838183750623022715555139075496592015360.00000000
0.14500000, 0.00500000, 120879065179994609215046436579666648869788068119358314273438167365270970573437795365997549705726242573302250545476988083660640470832265858125371479655137163300373168483094803899219968.00000000
0.15500000, 0.00500000, -109968424174962457084472536776197709290036094012187906714015846219980962495080063807431483438701625253486237582059572633976541941860120061816815030967635532337995843422993950217076736.00000000
0.16500000, 0.00500000, 95639240047650013151882708911848272200534565947642446626007636177133591534117431021564211927130522501689845546622805904789093132640153169866729087428202776979307361417803984051109888.00000000
0.17500000, 0.00500000, -80883729675707000569969336692225270347780340409007663899325676373619634274016692978734010149102542496187398103804938940220309586578112218600344850509766297965856853284859738629079040.00000000
0.18500000, 0.00500000, 67590691024162350228070266105064281493466149059552448788159423574128147465186135540561814861739100757792820897124569140987191941622918741479309970725704227352779194420619674789085184.00000000
0.19500000, 0.00500000, -54569704528893322498361690686237146138173909901124275840799816082783891866362196682926834098014328998449676188315451999673354357309653826528727886328097921855407056263892586727473152.00000000
0.20500000, 0.00500000, 39907790352966308678703892609974752101565584665626928954461179647114561145523291902423881665458506295885500932946145843672913446637805556345371631136107072387398068910136293540757504.00000000
0.21500000, 0.00500000, -24389162329989610114765007807453160484323637052691846846874760924375696535542475495826517934138360614904389839238161208451998966680798120374830971247716305346528865283553737578643456.00000000
0.22500000, 0.00500000, 9179056241617232756165919631571326517237241479056597698569132106907133225760294369312082923612447823458556240988661142388150439407001289913521868910361331912807607089199356250685440.00000000
0.23500000, 0.00500000, 5233824390064287199027248589580897385186276584226991107460634811369772207443724491112056925108022371451734597537557085980603288464137069204268180072047752750459181563987942048792576.00000000
0.24500000, 0.00500000, -18446952640507022392989324073252321259424439776475781075847672137017502031142776821284385056451474569140369381671759560581952056044035222429847982674831127472286164870660275566542848.00000000
0.25500000, 0.00500000, 30313264927050828038492591581057586755164184887926622087653115357752606427652345041442199780549957756854760670509683372418679450674544336053011193200050631975614473885982291690258432.00000000
0.26500000, 0.00500000, -40826961555632700286350906059583559819294934032146844213581570451943060579011474393230932847816627521454020395483943884872189415479370770384381214910519511876346761894220139929272320.00000000
0.27500000, 0.00500000, 49834761316221961641577489274306299123203066611007952283431420314301555343503084794227200920970424081510947239532022670469218817946618025605370923620844927139578500992298897096310784.00000000
0.28500000, 0.00500000, -57168795069914233102421949943100273793679100517217635212308236366018689016740831210294904189179462132695635029369934912372269884965021400739103384238430519893393213217456026019692544.00000000
0.29500000, 0.00500000, 63857538053109402302638459712119415983773581582991891546124937792389665359553295372931471358673736055433268395406416301602350365327469510255693951476016942221568295725097709794754560.00000000
0.30500000, 0.00500000, -71613490327894666990329213382533373392197014627822329959413613666536793534591667162818522470864213108725886033823820417493450184607913819997080469030581126154174427545741283016310784.00000000
0.31500000, 0.00500000, 80439680576580431862682840230316703176252805604777255913897547392349841275090690846895563079350766677623745862615335693660119764404633122282802756822556834362617058241804416954925056.00000000
0.32500000, 0.00500000, -88895665361881343118849201933357277973824414777416388925618560582264779560701083486276430122773493096107726124193276385197042972872963599648887844026514241018498068720503064383979520.00000000
0.33500000, 0.00500000, 96218333986516745810262449607126119606233438903141681580705636122263088917248202104757273830215279272267234501730893614343356914230299007920793016773283725227969686577088316741517312.00000000
0.34500000, 0.00500000, -102660497075867127745342341900587378880265720105677501854455350809496596874422794245169829652282960040490106060134674387368071040869802137710104004367832167777365119197689440911753216.00000000
0.35500000, 0.00500000, 108487185120219389945183922336872576678018588956013444212014406815263215786594777183402415887295797399110659429257762346538751428564832953571133697365049452321330138689783490326560768.00000000
0.36500000, 0.00500000, -113371060707584231242512568660712753186035881620891009993149924856670578725888786578514194767514900153787756158290679591407875823936545781244318874301465757516047958806707751075446784.00000000
0.37500000, 0.00500000, 116822816147294403847414412098413508965379510111585050373899042563094207305491650526249635936875605198072946426324098256727857363510985711645935176539299563736778056855421235979354112.00000000
0.38500000, 0.00500000, -119039163214475722709570445103147187981942364233909881960656563614158333393297329527142204531236215248846636255727767561450967457062669033631939700014935336760960663949904329391996928.00000000
0.39500000, 0.00500000, 121089941133307783403006077511839236123765725911839996836413512171624938109137052362892428311464437406619070651890522929051147988155634870472544750187477196032057414745993813371650048.00000000
0.40500000, 0.00500000, -124166797368647283423773510851623999999955755502073452636491480497891063477629856496784503102641643490929286906516805102378790318470157878412896429310828160022305477465852575628656640.00000000
0.41500000, 0.00500000, 128677032751994418435100684769641829552516154777335313252542823878478740902946881747306833530878410311909986111808269318046555638203726690397174560555171065079358559208962244214784000.00000000
0.42500000, 0.00500000, -134225252407147263528723149982595522725199955086508828588638572112544772489871538598303593705509664702798649346509750824132306921619563999466602634528071144198329776698544874349133824.00000000
0.43500000, 0.00500000, 140255848257754412839791912448311687147825737107295195335161900187402364989603702569922859257213587543029533460087047888344961593208006074619726640796346324298725596017035804271443968.00000000
0.44500000, 0.00500000, -146567815357017783538559599756183122223518832773141673823972952337229544455158187937312585929075744817984793400686500015544408213270583587287772844454257775154506437456301988922785792.00000000
0.45500000, 0.00500000, 153615195593675477517537689791747057211225011181134301924341751822542569736023808332533852953248591919663517259744133511723324449895897833696758066231125322459309145214227976869117952.00000000
0.46500000, 0.00500000, -162638263900369670664477846255984801715604683412548772789902131844602375423995351204818972930782311377960657010459451190205976781910673267090576918882770562582550822627209460471300096.00000000
0.47500000, 0.00500000, 175136741766963815438939853630929767915837675138096953257563637222336300085588523706980882270611492485676505202152747499463203521350807553843394258535110184564300847976965272959451136.00000000
0.48500000, 0.00500000, -191716926935543800224059248480305677847147410242056489710935727615400094764459644642870649486597104981045226926091169295004658768387893349087338827690300046625253109841404253683318784.00000000
0.49500000, 0.00500000, 211378979180667345936224305913132255341355100634905021515018668802278207295423425012965524600050714313447085241869602941198965842700590642915169273029026545343473125004436691813924864.00000000
0.50500000, 0.00500000, -232075664244349416115628515549434109229011939038446329762017957752082545916524468323814700037411233289898571077629835732959326921932244275564546060076081749911493275500849865223569408.00000000
0.51500000, 0.00500000, 252008338592924938423339768961382322365029880058742340895233406436097152252906363297700460698597618821327190661761719457121928418772174346983400682024287281335519281230901465510313984.00000000
0.52500000, 0.00500000, -270423050909150100283820183276073380231419354067610666033122958644736588732049492226263910086008738282104249066047694525813669966017018574198470469992886225738178256898608211500728320.00000000
0.53500000, 0.00500000, 287359115936101897430611695873699752692086331133672448698124099631427606707415535772197306691856637671671578418284873641214839907649066762197156700364450131634510666314507626305552384.00000000
0.54500000, 0.00500000, -302857327685679999962985244737385489734140819508996954280185424328159763300064062787662152628007164648587607169696512429931173047865472924886873933460384162291363555233812387186343936.00000000
0.55500000, 0.00500000, 316672965260855053462629570592549089945095405952993585540202996603245505507398289640510994371471975272095309501633556852657262460993481957894450739264420033896869970591462749368221696.00000000
0.56500000, 0.00500000, -328818136130111940032085659288409476057023977124937810688540602368306820056505137027437390908031412116376269339224450833391063097258076860647159083032749414241635616148205805114490880.00000000
0.57500000, 0.00500000, 337382563131739389359435819347285698008905014428559000039521562763879141912183788724289771101333403032172298182486293352128530849749120546614513473529281315809984276058572093858512896.00000000
0.58500000, 0.00500000, -340742841875943581294930204960492008775542109995705617032228107377834507646763323861618007458663298085780266070799399101478710587227797648930438382278004042843838953002521845378842624.00000000
0.59500000, 0.00500000, 347115580212998269572673931177822531996098249843483590853145992833494678245949744730107483289241475120705933317429824642846838607744750106131762350338982538939111289939715350453026816.00000000
0.60500000, 0.00500000, -363737896053648296348489147518607323511248962498663436562479895065860562703202216012273346171582032698904280608187155159742801421051640288612159100931307385077572521401970627042082816.00000000
0.61500000, 0.00500000, 381237967279348367154405101854251170529570908295050140941473476713467295660270512491566944288092803867080973392346688512372964819942173406104044669770040809135568676469149847554883584.00000000
0.62500000, 0.00500000, -389964791458701056687619295341053145652293304962594533603808725948864375691773563004046966291312116640768984490403562286112257788107078578131940868063323214992385854241347325866803200.00000000
0.63500000, 0.00500000, 391443329242639837842583049664715368519208399460930484685671845637797275159675105266952524455033283866085850222863703384510725792218535667088845494862557559647350223300452208408002560.00000000
0.64500000, 0.00500000, -388158021204929709413016152083481831968330974463031571818275187446844979891238217843269668717424316055373783881402399943922705491091825061888354598849792961020143177187479713747042304.00000000
0.65500000, 0.00500000, 380246894893563153481990605136655415047455194749609660675138233614005090506656397829257805086314041592933334416739354212797560811935109317249832053596189725251178849952684605656006656.00000000
0.66500000, 0.00500000, -367205913914222678379032308279117517115392532836860987901114276332744104341796209291108188866706890106450964227506870648805345901658965193258658622369936325625398775927547199766921216.00000000
0.67500000, 0.00500000, 348550267772718553077451316834389304321846181325500730658975595673363193295273054276351975601965256296252966701638772520864729340170544667270155210684626763719411178977559647946276864.00000000
0.68500000, 0.00500000, -324518729299423840465292140201586476480344763373139545300549181523616678054337851319490585077751179641403945957769465559446105093234395495205868204748811106347190440515783082245095424.00000000
0.69500000, 0.00500000, 296351861070843121050826550998177220240410371592767617009447777898373874333205707969375181283580546149641991506124627052348244136781773518582899777409315441537798480386222911377113088.00000000
0.70500000, 0.00500000, -266186741223783623751850659800551287260392653218313575733288680125068374958987727432912629273549009981777315400665454204877948357518779496842129027191038164510585326182768760892424192.00000000
0.71500000, 0.00500000, 235290090333144634631776446523593587396084282900990914131695099889551358615938949566014560355431501970506873218760050309943850713208974259034434568092367911846291513744858792566194176.00000000
0.72500000, 0.00500000, -204235660099141780573797623693812439385855387071033531803240617572984068695843351368211678092002128549565043468740559385060995349743968099573087771482759376306742533416074897862426624.00000000
0.73500000, 0.00500000, 174301804595571008169387633072092686136386734786072494436724067570892827120966837200121119825481565002433534956142957052676211336109128780705981545983357976452295717037004521759309824.00000000
0.74500000, 0.00500000, -146342381689595592764439028701646353041076472426834427211243885453465603336693323416120565948400382243435901251261877380651676741799024617995477409900566657215482928159633905329111040.00000000
0.75500000, 0.00500000, 117217691352647282694237703064484273458214537536936278614206847125909043211455328361900009908941626567174797799919388584223948464306781449444548261024158647558951178812020470560325632.00000000
0.76500000, 0.00500000, -90984596957968686968636464904606608919292228320499036267202591115418939710637666625230989367023762796841506172523474256824441905455997126184469577650645351053495366002910070302572544.00000000
0.77500000, 0.00500000, 75309981808810322445868713747803770980295576344228268693201384042894628413617220775483199185575862821956745642833256192511027226391350675201459707882478981263996371657254796571705344.00000000
0.78500000, 0.00500000, -63394725726403471712572780801647719437149695887488650689060921876052980922948216569392765382527226692420833720528213286656260180361640398157322794345312314674290748542998207984041984.00000000
0.79500000, 0.00500000, 50324243027340075404709770680757773006839150879976711594040259663896963252022784968690727336076864220024366477282565752496145646052954391499355439303120431488522078845174460130000896.00000000
0.80500000, 0.00500000, -38077896618906296338374744572395175304992433902100813178685339243066198321865847732906769662367737414279200179455825987535215302182631916231093050810488394881848683677516783689924608.00000000
0.81500000, 0.00500000, 26669027984358822982405420888355534813979740020375930183819676211219633543852796428199820258370267712243043341170858714894983075728950403555025414949010257494317529966153461651210240.00000000
0.82500000, 0.00500000, -16168439195487303071169461021934241487521913658659262472109934673336521501968757794535658406541462010152615450356682252796135773372216591103037618714815934197758808590059775880855552.00000000
0.83500000, 0.00500000, 8814068255057281378378012033794251566003447419600832653446957701181153296852684417028107869290342169241429150949429534217775301178380427947016599179158276992124643308834602264559616.00000000
0.84500000, 0.00500000, -4620005432153260634170348588971658574352951564600265943608949383484745952157315956733530404477456470053238352190058546111960407360411842040616829272081160963951436460536445402087424.00000000
0.85500000, 0.00500000, 1170855381645679976579390701798538525238059091469244429163268891013353746697344847741629169649576995826724319133781163122470977537477582173938916360467004245088253528506023328874496.00000000
0.86500000, 0.00500000, 1709127911892950461452561342011688514340730970284789591078580904411587798993481447659441365899350768337446035489258281828553309390345479641718862140239407792192698314486412929400832.00000000
0.87500000, 0.00500000, -4652869999019606658216540787152808301261478130370868411310991487559412149677233842986267157600407472377870739660287057880676538747304725081479467146508935252236090754117457804263424.00000000
0.88500000, 0.00500000, 8046714931696614873138308586022980852852398963701710687117716710086207386499002509903853202053940004827885492099363716579438974737376924161429282238937299835338427368484900274438144.00000000
0.89500000, 0.00500000, -12256585327149810812826670587770077411888963649984419906220640065362219255004499431105987659701202281194182578193234030021755190462297387039059389764548026514539442594467245665026048.00000000
0.90500000, 0.00500000, 17719927979733818740580107094116665449029487410968412679836654002917635661958714728713281366293477722136310349282409993903310101548954597630280558119125168431622666480838330806173696.00000000
0.91500000, 0.00500000, -24051496771953018082949174229002597873679501997613461885990800293013568044836182401672185489405278112501687943530520015902645373217757159904091403230062620760945974684939321067175936.00000000
0.92500000, 0.00500000, 31146693380785215501264859999967626383176009284470033305068142129545994098744973773872385307708786381419578540771656020087788820219735256639915297289710312931619639875610022443483136.00000000
0.93500000, 0.00500000, -40810214339135276508415408939909599472021256188234476105065401644791829892458967453864856380810989941490154387325963815138260139067585767534647572398749701182747778618467334989283328.00000000
0.94500000, 0.00500000, 54363746917560180346280728645187922331415175186317996426882250931168307413093534273598145529394047691388194468025545159948001669914092621330329180007388543737167451377649328710483968.00000000
0.95500000, 0.00500000, -71090627878669778144354279646011395787199701004685446246700543730615258085062794063047655649643470986022084596136656185624622222912557315328496572767758384008510396097734278738083840.00000000
0.96500000, 0.00500000, 55037587330738453747886619666729247457723342463900354019371738069735304291097787732793458148233771126428152422761483169126422022649650077715387536864965529397773478169321435857682432.00000000
0.97500000, 0.00500000, -111183564632987917525744916857712700884688921132695955218558421573604500411775503225732643041645568732499644352319281872095767771218431515281509067574761122408475482487440336777904128.00000000
0.98500000, 0.00500000, 131052273809609171834144633987359574269530403847728118573364865791940507159920687307137288529023502844800008523782798825957868830121862651369642694455360823830115902610939578803027968.00000000
0.99500000, 0.00500000, -148501751108090276475457206936087299726604102369107533560560218896984381665290247093643038241664340434136942249135701244325559845266071765259676947006838306634551303842280827365883904.00000000
0.00500000, 0.01500000, -197262086029294418719775255055941949063024827345864827045532763877658488839891613936485094496770838048550914630135803594183877100799717288381996175006897434528301577562233180648374272.00000000
0.01500000, 0.01500000, 204380627721014919036833363223006839723562183184312397280715895936606274002228329463088770757396371216341612233038642236120998164188964503534425633721548234477959804653474314532683776.00000000
0.02500000, 0.01500000, -214545311361047865892597375020795578671145565423298629725707405743194693157174739754711013398290207214790879496356439151759537553079042542778711870063287689553216644543348865687879680.00000000
0.03500000, 0.01500000, 219133310642988709673426042593445640143474676736418437499830519983625500335657555125419877916937184249041474431786135863245665276322761271318031315807677274661641446214554978195865600.00000000
0.04500000, 0.01500000, -227252923406596446531826694654615003213654244570502837446147695737748385951445558778893897201193669695810093570795402025195983189477745251989381379876547695883437153966127608814895104.00000000
0.05500000, 0.01500000, 234461702019879239558670441159072768424199576412564200288071193346515037332241523160789503413481470395681502120153832992788477273101063903547222384405944041089822872997103908740399104.00000000
0.06500000, 0.01500000, -233858297424284276596151008884886516718820910787585583166849959206098336145231875508637922267309918566453373489660023044871139640856550283314749858105950090839108923256793216327876608.00000000
0.07500000, 0.01500000, 226664839499123656752196884902304274012184119940479546666062963097208568223704458933596505226216844744459820705206374932041738827761390959622419225308685775540554284969936893956325376.00000000
0.08500000, 0.01500000, -219903507301214484324632624614751902885779200403736458207258591990856591888296217764376766917833743382338374106749418233246183788778724221700694704874055580664314722834883161526108160.00000000
0.09500000, 0.01500000, 213338909718948174830070316743830850616541439686274749186313466033905927770451991483962526276574652713839299522315248037232314505641701461564761930593446421157485783417317273859260416.00000000
0.10500000, 0.01500000, -204315037980586091545679880618033546743783761094828661384158506906159211663144866566546191065654963878980148722444787516418158432208052705921089867384088858917737752374692762666139648.00000000
0.11500000, 0.01500000, 188860843954157277431933478547842426409238579233566850639796122740472734493395154049251499161960110265920784927270591338933075103017529695879475199275061407031497551884067903142625280.00000000
0.12500000, 0.01500000, -168538389354926949526641514925724385032497155163280442224867681363247042688452517200825301846616540587990416181362696128108067836693498366563237155977190762892243954755723147436097536.00000000
0.13500000, 0.01500000, 152450291435527826369764034243434389215386934184442572984491532140067707647954933956903958132301417442980478332559110167713331919711758783846437693207214029271207222303431169987837952.00000000
0.14500000, 0.01500000, -140650500509026364271493599298989214600670067965127258012196864007973497564640662670792033292267208455489676089987719284521580094806637983077510580800332012008122506088651458489614336.00000000
0.15500000, 0.01500000, 125812224656787732987191633401378985187834042182026132778488212107621117354288637879865442245634235940239782596737491880190869250087537904423742972813290155787031361313748314784530432.00000000
0.16500000, 0.01500000, -107193128922102272811306473613463618059524082021983461451519976422038801582933774041336319686716415356582023502923943753274911195557151972325016575686670509251564091084740801643675648.00000000
0.17500000, 0.01500000, 89260113975124871924252474374212608199075234978863771980640119877608421573726021475655731256939353557908493590580576047242265081701418769866994401405940602807944008082582569234726912.00000000
0.18500000, 0.01500000, -72795599105563050736717102818132793748915424296438198307738960300077877044530202358507614673443379906564358369819950667065905906667033596772483551245658860769953438757973626560970752.00000000
0.19500000, 0.01500000, 55751678794107981308792774040393453555343342439339343224391276502846224988912597366034965685382013758552715055536845777676976004037869161157800805559921631518175257161109823494815744.00000000
0.20500000, 0.01500000, -37828481166525727105475278184150335715781917842485559812253506823293327702082284712720453930304751662683728796444692785481761503762666446759507760139770781974299230866008960808255488.00000000
0.21500000, 0.01500000, 19810273917952907846396505600026804838158804518481663478341642498243419081268680478223884864405109918750404673975547978934140689305860674893626152945260839026599845402512458868850688.00000000
0.22500000, 0.01500000, -2345140543674536730731311126393112280949030498652106949470357596948682582943352797719986645952152023484905365578956859574384818362934548587918833279764351886245868063289556074496000.00000000
0.23500000, 0.01500000, -14032332479936554022220126486986351482581938152643542383056160522498694373869075439542143507168604708270133957967103452625320542940021223039922714078262860812644070669792095206637568.00000000
0.24500000, 0.01500000, 29021555705294076000905408122155188386800635671270563031202217501504742602458826224205831697133737454217589712170619171479032373363519073803378304639568984606068790949835897760120832.00000000
0.25500000, 0.01500000, -42501585801911077213753176374543534562311621131584861975362580378451152752349047619988704413366685864487420554377599429196246719136008510176772578893745931548708589242515472525557760.00000000
0.26500000, 0.01500000, 54461524184186768087390039474006862378480301920992485216114093962242810263274387408851574425032372222975687141690458904435457784911472665040977373265066218301073191178251413187723264.00000000
0.27500000, 0.01500000, -64679070512956474527484252097309844853898431719610158556051047262247153956228532965485136602649821491576668373691099978737973301033370212507289506967589816166717841047311476060061696.00000000
0.28500000, 0.01500000, 73039689817354373196513446936606333530276544456817892092790479000726126193673390449046775899340202534605914811868111843124138736818984534421058949727006187603146490043840678695272448.00000000
0.29500000, 0.01500000, -80786100246422367185704267406736635370849950675540445459352120590704200535293934107617337954209084366853420134996323414604485372868195723619797435059414977851043804704782936705073152.00000000
0.30500000, 0.01500000, 89383852399122087393848299260935629155054280084171855862091829738380364968725082671212057236836077467080959747631668873449799594428987953747201534703548642128858254184741311487148032.00000000
0.31500000, 0.01500000, -98352223254251321539543224328653720280525541814695785273785704920306360967550553530385191529954020391103835653000743947038880599959458810746121622680086443996097089354565029743034368.00000000
0.32500000, 0.01500000, 106338396543581740175305923436109631099329278805580759494079384637593275511135911585340604901373010555099970162763026445574530787714383520015478283161732886195547044532865936465592320.00000000
0.33500000, 0.01500000, -113071951687895235851022943217177055495307394150856235529827201205409901181810114283663888059306957839967704263884979486900490166307308722619832287032511888166234645289596368434757632.00000000
0.34500000, 0.01500000, 118992761715606452212009792219623014489316561406519525428730875088394927891151211030636367092500887942031546211560725230845201763113304151329830437547880668341922916255045098418470912.00000000
0.35500000, 0.01500000, -124065075474747341903986025508661221656241287095283907537470900388439516560249765839668213817868326500843386614934644554768827190238671247642114177607709696327261421194931493480169472.00000000
0.36500000, 0.01500000, 127786998034137288489377898664633453918672835874499052035068360389587469151151031984397391642038210711805497880867303971642948273585278732365780107487498842252699040039079954360565760.00000000