TITLE = "Linear advection equation"
VARIABLES = "x", "y", "sol"
ZONE STRANDID=1, SOLUTIONTIME=4.9, I=100, J=100, DATAPACKING=POINT
0.00500000, 0.00500000, -460043827735754683263013474320585661014071198705073531553970791443421422682763336459944884343616084850981488054023901218445745089372103380737806066389719102387158164079733702736842826701500948073292392592992899053730152270790656.00000000
0.01500000, 0.00500000, 553531485345793714638624428851006230225833369352797540068172947011261678841780096702437443180242634292630778513782915219855477225593650526683764665727806658718476144780681315727110922806917996118992110190598058232444973773488128.00000000
0.02500000, 0.00500000, -604434832408628675984514253020696794545501271636099037816316254126852275643505496617695272957514485006826751680011477503711763716997747491502095028884283382090844158002491386864396212643955749877222238088526687040406287110111232.00000000
0.03500000, 0.00500000, 729801609994963517497857789266231167711583953310266444972821548432648327461734638872939979104129058831759629389509840146466755487679340545575870311857103828671735656198357940300313548502614154705349976684851122061929980631187456.00000000
0.04500000, 0.00500000, -873934697066867230029069100745837692368855838114881916964629339992515041613113855292160292010917689989650968103471683468795049138920305765226613521405611244441375134764200772256503393459908351942304690584710323316536632005361664.00000000
0.05500000, 0.00500000, 1019434409721416185348241550936941966645392442192775900528546241741801100878158221675975197742799515939986482359894608341766182045648571367229926877447740205795131683298234681318489972902558762364134590505886161814603548202106880.00000000
0.06500000, 0.00500000, -1211045545874284989811496286058600217188691526026916498439184333295137771246145491931328439278327056391658032992242938335334876484225510326911406011293375715606050065440907784113625859599001684203059855537103266243297369682608128.00000000
0.07500000, 0.00500000, 1446488942226517804190772597179686245913687629481642549691553491201406537966969370364245897604867678927821757997727453225222602219121183670513203792214941649423876344994541100908082735414050878120750879980720865295241759286099968.00000000
0.08500000, 0.00500000, -1692420577172762987855162731133020133451170361522171091476298908721573303933896113833805934016803479841976776910023485432455508235530189017839953952051289738259073627205070988200041828593929900833571582189951865999701515582832640.00000000
0.09500000, 0.00500000, 1951308035181838824018109265380754930829195393199828163268766565386830477259617345570518651065023106658339118032820005318923230762928763249936364839242000069443041192143793527743259668508509525895639629191186167668872630794977280.00000000
0.10500000, 0.00500000, -2244354702458307503804465942360071759590980489166234617084600515752231226625739398177889505161189841878276953419675343396416626249333014326046903328682764502776638671555004434735613196491311930108424520474158703526058050841477120.00000000
0.11500000, 0.00500000, 2563764589551089942720785416347761173942325917598056570922168001326273656317956897249730065486875278200619271899659565249465704152510921452579164932989475999299557906024372054570731205293794593069394870474459102291852597408038912.00000000
0.12500000, 0.00500000, -2848648024454870024837794110043139051351783957880129272750797782795004897919603116596279970388084806137301201597895372215974943007283709979031346906019017050942472034700005991973151229200999492969902699911376887520716075994972160.00000000
0.13500000, 0.00500000, 3166672435912412018288890791450529114737206756958035774261499634354606136876983871407045260973014979764788377584372777539132721925468578496253273465950629478722238474362602383783094246389093837846330088441212046457096391148699648.00000000
0.14500000, 0.00500000, -3591600100447743014296833636373853195092073597388996043116055432930419187512911800118704908210007606851993172561029330931569654286098226156741952616965673603114602349195568137566945280451629159662560607164655605609507448592269312.00000000
0.15500000, 0.00500000, 3938267662694609298857908044839669230852384659236533731314684357534660293664508137284105900096875133594537296216959019934293984669647481723999832388292158242938978931921817584375944360109060876432561269164704657797296125217079296.00000000
0.16500000, 0.00500000, -4398139597604845664007486415902742840347926704383671101898061370220409285726647653423370094185841356366802966794368681846455465681765019174351709085174580001708720241234121511069164294497119640916020372931236046922328662081536000.00000000
0.17500000, 0.00500000, 5300208061224249734037211739264744979208872524904583834205219463622621940269496866206538362709767889955447515188940552221845338449943965750376256720513784038991645584491532008336340459222398588114406962105716749035242544198320128.00000000
0.18500000, 0.00500000, -6395993012087355623642096440265519655118048126095632576359626691012745400656230893363270540976677490468565809930928413601963848620386442753746611759990442768199487733082475128761912039975505852112848729710702459498125742361804800.00000000
0.19500000, 0.00500000, 7480875505170078076163413806835320955066780544170859280079511348500222449533244196287384496649321133152356595600882456581177688223847355947685936009503738997799469574814337935148607301491548185984763804189405688836957320744271872.00000000
0.20500000, 0.00500000, -8699442025804736302209164640954500864588709932789121320759987133049067559334521607318875904154082756281025737143828630129138018001257741328702909919136453942765060888693639445910839061844108500126448099267330372097403944731410432.00000000
0.21500000, 0.00500000, 10083330669133443296362746541522236435445095303914660582595916988455522659713594781875791805836711250160900142962391345093135741572891000706029035875012482781486277916416121069576220230798752634145728993638026179996656035291987968.00000000
0.22500000, 0.00500000, -11736062003372028851724843678501296878207438219628841043356232940415455333247706607818568141335568075657802071120366366383253516655930544553258355840183082898543232133239944311753164614495947518223352405677389598189564840808284160.00000000
0.23500000, 0.00500000, 13659327548275137301575164537017677420172499878697801514229202691161578015658762589511208058042092894885715168014121487108327811435116245898040562020293322087802464643058024089170820395353823315006725958746283721315613789921476608.00000000
0.24500000, 0.00500000, -15751123758509438977372376622656354437030028452316600014387669330860035424028166511628897508915311217748488123206604057896416505160639868781607029608125304435772478047163293603868563421183186610312173418037518007931308672347537408.00000000
0.25500000, 0.00500000, 17854814030341075113638208429926152369577515845987432246583500863124471900512657378708986664506710478752790672099824505055006652657778999853250177210492042532849583817153443116578368944055554421725125960495282704723462265268862976.00000000
0.26500000, 0.00500000, -19793256774466878963398570303090938175005163068516916960262061170428076990329489675554079887490413334936185970869695730905630363418824021627577957404395836837475325597085722315085843548605695472236991292138547282498308255034376192.00000000
0.27500000, 0.00500000, 21568414135242982425782687569151218556797589943737635186596223655234439029828259550341923129884371973781981066810264287741870989662571563703172684842510500119109245703490062526159998916319611732463509282002834906772325040344006656.00000000
0.28500000, 0.00500000, -22970015549368602450740604867739980888113052008606606571011961482975422644201524475973606283591185747995807931964746683119976115987678545087727695246772236785340602903049814649714193735363396782341637075866701252427808492903989248.00000000
0.29500000, 0.00500000, 23974842285058253118535223026475638058240789718701773354899967083931378311310286421207110604441831344038604578399949730835252915477221647808622955518735740188172610029135864666469748192307063586564772578642802176284765363638370304.00000000
0.30500000, 0.00500000, -21338386443626080629933693851823340993354474981354262901588428881333138503207780632532978718027141705345087108179542244390098356371884613697781912193903902845745828012486251779099412477236586619929762754315704877216427192008835072.00000000
0.31500000, 0.00500000, 26182526785140479790503304927520588832830566884694422161904050445949985535144957874242100155400619716258095868386406944373227854145652395636857050325773868965560320388929387346702895783563913490030438811045424870253479137088897024.00000000
0.32500000, 0.00500000, -28126310955672009489201953664292165343904821168337752252525158817395489330978220121031303230595696611152204129083641036551007716240975698879639944715670506442471728357964643282298007465615825110854133644203272107127826571652497408.00000000
0.33500000, 0.00500000, 29982039681308942769273720892099688291813416033107621526927624185976153547893874536555242261404198574007063177565470614584078554050084553416157382235097526943466792813719938592391141600524216798647407616993602709174812755516981248.00000000
0.34500000, 0.00500000, -30962331832244106563344630117027878387211586119062299567042004373853791630233862442299619291876550489188841221363889689693438464378170295117185283530232243485792418332167172024654429552858063044616764464947206715899174202244071424.00000000
0.35500000, 0.00500000, 30993457515535776391736706995823022315582325847630573565199123919668407759303566026607392931019796438741170159634935589599414268604156792350050588228218235195993077609414373869456668923007868830164503428315180274312103872736264192.00000000
0.36500000, 0.00500000, -30446765990404952690041740712823524828037127720168670108539583691277894360319190715099700477863298669581727189392962142772310436513112486504194061934774230428214959645791189287112656613064006678476735888373461673895817602406547456.00000000
0.37500000, 0.00500000, 29322093065296099612360636171778382852459429282564245712319346075800777398170972215481302994400835186771699444236838948883938821751161044495015636035090841259284478793950836401054540230314140846529218641451851727570912498688196608.00000000
0.38500000, 0.00500000, -27221725710552787757461194365549818493891264628454301270490313007607143989386142131838648857575213057439128560466049276426653870174924078727488633618890546893748864713759244453596502365037888009403485937809932331343507635543474176.00000000
0.39500000, 0.00500000, 24227998976265032074758180380276226761537647916528084757751854909043319969088294116864418429664551734384137528302726107620602939376729664114079733450111199815327331737150523065409779187578108496790753536698156706154508492373753856.00000000
0.40500000, 0.00500000, -21445428887306413748204279456660703245268394731646835701817161311907520473198945180964550012266745366151524479250538676487563541711639443094776506090944323918260747203645345023459553535896768134707387608088021767104743940674289664.00000000
0.41500000, 0.00500000, 19791933653942780721210262161004566543609204967182016791170216274061894418880687333486405587474676337694691892837745699791765929264860627902642022135604907870519803967714005547406838621686082039729434188974636753064570040637980672.00000000
0.42500000, 0.00500000, -18617851932682760904594748273056017763117714205332915234166637579148139469862530547705964245848498073131464806740625476805912984449526508821330102970150896598918084661190582155894646200412443695105546973363187448193972516516003840.00000000
0.43500000, 0.00500000, 16839552427862603161598195739035693316733705164174484589942752143136172315942639511458449497695738293325886711570149137912670653829183325880570612462851080798019923890054000601563848596325637037329933673852192306288755375614197760.00000000
0.44500000, 0.00500000, -14364055339783915174630071551954964248696639524203455378426685645112897879857260518364669876097749813951318100218057366089293950806275155692086092945686233695797337042572730847405193945420958355136834302989686081774379890317983744.00000000
0.45500000, 0.00500000, 11595947650906919723754271355476068036915701895833792021573543776163791720439208122255978669287054016235416844200472803891465471538956407425258068209742209837656430447898417574169716258725556691040981115037887684456393303675371520.00000000
0.46500000, 0.00500000, -8823841484942048217250115674113879473324947356058735077963918793362292159994470716159200706646470216119916577975168253237218300854965666576332675382183868544132004465196381134343022395245267739861908814465692006724373052953460736.00000000
0.47500000, 0.00500000, 6374723803789185000842959449374013969773901603847158515843817851208338101320984142200190957414838050600595798126396523834279974891818668510639375187221636438867157776586113840575757282610673056115700210111146786732319321442222080.00000000
0.48500000, 0.00500000, -4094672286794339400313622157921888043319239623124721286010396557574130851631924471740281789767379384312268362504654482349111367796129037381533032459139321330369570207798642228764844802316698943910855790449717433945318721067155456.00000000
0.49500000, 0.00500000, 1986487409515594098844402469388948366360176072024965688311804026249720222735998310640899553826517123889124174163733031088228228162708452949605181467592103628641238072729229110707732503068855867974489302123174384285621034508353536.00000000
0.50500000, 0.00500000, -25008460097371883943898357319501098505204228195772221574843274263882835010125193452229278815271453691981438150772198354235705748634350019716652384270029177813930006919873496907667278210965619046605937839210906489427345666998272.00000000
0.51500000, 0.00500000, -1757925255513600385847967696146574584410821441119831117024991786461520602174023050804232569163314401191184542722399744698308211874495691320276583190879030210495748284214703382333646463282736833902160382361571195470806625770536960.00000000
0.52500000, 0.00500000, 3306342427100617116059829861131276663955906999615174878933992796306256055703230432338878409313732875045172294455426584227852070722253557301040447844668070345742605919673087788697756053150720097742059062502990943418301797785141248.00000000
0.53500000, 0.00500000, -4548343872833439199639593349396536200303920392664048221456899687832287128562891179537819762756242702820686024157092951550976016165244320307704323960428034978838624395781227141989517703069185894044860727797668366400953449359343616.00000000
0.54500000, 0.00500000, 5554582675591007381162975281358750949588702138535985334558309648107775498577006796866391206042186709774516210122951747356736654923038946176947972006322009986697007807970276423427687867193171136021360740256502575680938051616374784.00000000
0.55500000, 0.00500000, -6282945761176170826259122522540884370762934882706819349692688336236676816777397173252745035506346437247304387743632351155762749549452437105612665281047097201857250329301931508190879661760409643351215188239354268064342980140466176.00000000
0.56500000, 0.00500000, 6761603079289046989774544483623263710801047988048523954224704257362562028338192998999662175134670534747311514574488421664321901704911409769807285264212160302487387445598233391252517081619897821650672857323890474589666579744555008.00000000
0.57500000, 0.00500000, -6963707105409819823353307047474802569627414198674430787980725983805677436962584452762362124075380481851457688680492543039222511373145895313117244325710459163046258955354609110627612499886665347705901245334583885651678140878028800.00000000
0.58500000, 0.00500000, 6909376714776585731414155452452549205091376240604954032538176896452590938649316520953246057096982378333910119771260182226645379242333092419276953194144267567875318902172697787055931002049241826419386213491780804181751199025856512.00000000
0.59500000, 0.00500000, -6675113962880039993177967639932477883086334848528074628234665331316086980519126898153304119099954851031862246060984955991649398282337923998821761204396301811778352255570272537681981154769367769652570156222683680400727015377862656.00000000
0.60500000, 0.00500000, 6332698048791032994117546528556344343984951800184768289173521223108612398928994106506076490244588553237473897782351880236938322894927943973513760623064118842549486544496230182082828501385137822868198323531536887327221849035636736.00000000
0.61500000, 0.00500000, -5927514129740722302264230026016756324754165221682313046414463747423177055298346339268770035863080235340445164218350561412934584043029236300586194071426420071670457517479681278377080318131074017878000164430275095618946163693060096.00000000
0.62500000, 0.00500000, 5489765133667713747569926221315264187186096828776821009204580762107105782686211970546025629347360185601134175806584600305340463095366924022941442236582726470259726342595124305244629168712226626704016797355799093056344206277083136.00000000
0.63500000, 0.00500000, -5020995427673445601776932137397414633969321671031414072702201525326712899206378555901696540008953539706174683835949502463259541345130664864187048813675320828144777071594985276661356335616610072362992653559227544717361164012486656.00000000
0.64500000, 0.00500000, 4513156034548053695035335530889938546041254564350919131757608971009146500654382306048619202922243550685619036117652630570546549897362992865192784275675659000012420891733120181662998677363097401661431364797570633500185472672989184.00000000
0.65500000, 0.00500000, -3948704343400871456440199112841864348612108211578801380213460494658066205844255893795828670187464577333744395378214638060795569998940584552494366508851939402387510657436485182739567305140103644034315137836216032264473969569038336.00000000
0.66500000, 0.00500000, 3336935852871542223540282634501397198320011486135014952704733061492056842357824754763713741959143106909799529248011702754758969524292904079310142151266306865118015459609748244446214322903853105140540274825908586861927291441643520.00000000
0.67500000, 0.00500000, -2726472428374965037966053671207850822815560173770019507176748581095237517629915124424228032920893767572576073049476037947778788425476594657134219711521961085078011137720881808008106199608602669229264930946404876800429381621121024.00000000
0.68500000, 0.00500000, 2171714662605706959125084309115850952715950174325367930615765463885419303945122614137174292093794197547576352719206813579890908990007742997170560855655574911265119241925398391258654979840434613657533651831903333379020805688524800.00000000
0.69500000, 0.00500000, -1705065683455484686417083830192339178930553932737489657879409306088361831948069962441692370518593508676793100660604981722589482659999485449744165161154868654808643344565373165763991515858579398245280594472842705704421737896083456.00000000
0.70500000, 0.00500000, 1320978236679695067772642813186743135059937147658550948944804819736658854630205601614040026834001540030595503548217169160025436494047969694573604341324538519111920122794627214633308890513877275890944918618676918185846014931369984.00000000
0.71500000, 0.00500000, -1000486847609234703548470291898980178074749700461493023823970536285309364649108922911689909499657423655148198295042833227083309090354469775917740197304626874637261647685409375157553725949844189747709865779868117251330042587250688.00000000
0.72500000, 0.00500000, 725463912521741227699249565137130676837807725801614287807626100779483907941720300612897454077330750239550439167102569202345857353202773812583289598551850775784132461724075869233220365225332741173709775923352880393896069571805184.00000000
0.73500000, 0.00500000, -496555206868233706516418194361928808148399573389020838736097395563787081531472030369661485815270949562853547405486068131134048149552202896483286288320857170746716318954946519072980040674048829765906443776020138218480950682058752.00000000
0.74500000, 0.00500000, 311805686428430585453866781905387089460737383441229496269020898601123877842540455640950289297049214929315393820927720837221824907372307852376088176784504316058102031033978143742528750089309052328454493856792075791331002213728256.00000000
0.75500000, 0.00500000, -162279516672608712472085924980723905774063814102826917329486130048407452001363356468959054197015195643721175838454369511168295589853508042824607228057698781403167991615254629673429584021076340938877503613547485502610720549765120.00000000
0.76500000, 0.00500000, 42796695408136966579076382751729951137257752952613554803573448979491940874165281391306476614401780979659084485124066146460604913947343067419563092164705618504239230370651467280564204661701038391268314500958548739513664770408448.00000000
0.77500000, 0.00500000, 44631432615287250307041217357225247246023601019414443862297100771325685891270291745645264408419191661168183896076698343445205178521791694662004498379222367705295376788612741636501188496408783203012610509581562788283958094200832.00000000
0.78500000, 0.00500000, -100251677535238327679588004759049380001087016057653750753096145328180360023180208318982910066197338255610419826428797317663749465679960474203224676280122757654559980793121404664737123141498497438548206938736575096939865914212352.00000000
0.79500000, 0.00500000, 136475036106811349889761400208210207663118369152263738487097245191668070424006740107343556672330536116781738663976179104092641241896783659077546836317913955488610432870780870402856252179853584263637425029519086411146223207579648.00000000
0.80500000, 0.00500000, -169888979582515721270244654999810865964038520453719158310393337333413849887015325878324072766207999526773039994773598354576947005351672769866653981976378460742873756560994839692753626839221222984867327193033183937851499032346624.00000000
0.81500000, 0.00500000, 140354661370901154647617359815919757677112826582447709414658588366666870295071051015127853941820506785189846027851770665320272340997244164329856212503553338204507461323373028976180222009775408347359945632637726319474788819533824.00000000
0.82500000, 0.00500000, -140286440083576510434833930441626591027537530459889090025947868880391985787033561582175026022497378617428773206747750714965919851049891888039691554924166015290429432921897338812003895992838457234318434068462591982359871651577856.00000000
0.83500000, 0.00500000, 189679846525447901532157329816775085193593175277584071640825511129961384650867899559092676705926870580827608526455240169187872309448299240999978799576437303831142868616941980223730262900663698663487199361710731904740991778684928.00000000
0.84500000, 0.00500000, -112766539068468166688056002066091354453471186799457407587688510238491224358530200105606430143523144439547138173156088584965155293596140054110971394625680833730172312406820174141696375757694925501004666072377569988838052591566848.00000000
0.85500000, 0.00500000, 149182294872413788917879432090596844287132459466550694985309923240082777354100053087627685713804217007590706866503677418839302046464863937108713532289505585229367124481796718965912753592519029809520174095011491505159196851044352.00000000
0.86500000, 0.00500000, -134108390137968152573975936178337869986076292846507683397082824045249478081724657826534771717036301068531125271613117466858346239621493126849405428996056682021869810726610200568304290200628154857762871932896495615010042988724224.00000000
0.87500000, 0.00500000, 122840897366416227850907978570104993359474901993760582412780559533745689881221740555865924547420281942504215188122204401268419722000962229237478693935922386539153858171653302500923261441543730182608576608920269174675171778232320.00000000
0.88500000, 0.00500000, -120987858542712426627569634297285624884978611239421609447397233999326713677301087309554957657295992756164868375504904408722249654358403055696699383757913958552107684150957835225298193091170628348138434901091142057114456020746240.00000000
0.89500000, 0.00500000, 121414478894606428356167607764912415858481415335725191958153110124097259999041342000994438430248275063605327172044357449547852409740316240802305242057695449611568017161992520518891882352019715166137184057887404896215422306615296.00000000
0.90500000, 0.00500000, -119572278096772550459919012751279069152487509178219272895523752542426056621965329574973062713556371869585602949927002018549513403302151561211003169078698159247650737048603731489308906546899233209759467636995233640209574973669376.00000000
0.91500000, 0.00500000, 125360224343424654542381413838137326213497777583391527887238389143984712852219303260437591762847365375592681227935048216775447626615868220589816929991728823982399680872489347796392783436438000348960659865683191462435138442362880.00000000
0.92500000, 0.00500000, -139238904274124474017059186384733978444716381329626803268966162991887308776301949626801716366629999083438762015238285869036580322638383379723383938791552063347068414081628341747816337475626270508459200462126102138619696578035712.00000000
0.93500000, 0.00500000, 156742230790206783139557528206958566429775818785063327209733926313415462304831774649675466408040510957236481221669469333230815808421388840300866793123472170888103253483642011100349510137339775153180133410892608474066564535025664.00000000
0.94500000, 0.00500000, -179958102224850035606967657562176991593380705209931924850216966102071741280428792826467545505890102616044489438534463330837533625298893916425400890524581040935051509443448879621646515432960319783450296327963456702553200959422464.00000000
0.95500000, 0.00500000, 213078699174693855202120315651976741803545278839840088307167528639556089810507788941169728941241510678497109123706828234326188559838553295467662584084659254826562195166675150172120354205612442836224265183948557705943872167739392.00000000
0.96500000, 0.00500000, -257491157671194379148110209852501626008327769117877517796091851101074378481123543923841356028235753168221661134546826483040857462036314405841886494254295799299997138335432311133711796139877226171594890240667254912575791314239488.00000000
0.97500000, 0.00500000, 313913040495100803770746026970194423675458490065683740450167997108307346369931363027181375566473971841209252622838059296159478870197735270454905332528328233822481966275611939427766574682437548376347805347556062860133835013619712.00000000
0.98500000, 0.00500000, -360790021993774160366938647022795614741628562692225853773960027227073781821421832914127054379555888821129847501207018693262532653840084697632212838598199138902913731270270003720148174853175099544644047053630724874717982179196928.00000000
0.99500000, 0.00500000, 418988021659592281559795951243701417641073523668368287899987719112843244109883164351433506643898552932529132459267117557955587381767038387433817274756741276772769492335170020087715694291454136911627190482579841377809626472382464.00000000
0.00500000, 0.01500000, 673916198923308617561794916697562913450771769074534614914859878517689332271596381961827720943290355344660613981979704644457400509242978175178099622774147992762520274581497064472417227715793872292361350186883511625422269556195328.00000000
0.01500000, 0.01500000, -733746183891467038288747384595495698023874292548250724232515643069674588991099310855967537848824654055269777878519352744017014066084815268978170818295768678776758566789963514859768189975062705701844392498006525917070398056300544.00000000
0.02500000, 0.01500000, 834127677234300318808782006287033783882127335806532092322901780790989808740981695150808673448318588966474896352265535102311259322847232320789816183431070987203902800809764692352609366640633332154651550872281222088264154404093952.00000000
0.03500000, 0.01500000, -973761369919055253916631449309818994800238808475743609097402251954032163002376531031231840243392816613076627755556889148042529106049815653860314417446717445641849503002001791381702002195610827089343825712991655005439458937929728.00000000
0.04500000, 0.01500000, 1122856867647448310815604418893297041266584450487143599657908977861440538680511091061301261860115056743309196456662865593330145586024938045887077146184400967470614099916302407040356726668031410649301569456289387910326890893672448.00000000
0.05500000, 0.01500000, -1297233141709821974369342940661979116088685704434018765942861365511613887602206894505638696704031065059370616121305520540538913451219210169378986027101033008698636666485951639801994251522882544284093686719967024179310479066267648.00000000
0.06500000, 0.01500000, 1510455798805986672289043893569208955109836380024077976197227425785193278297789445866308329887570899865924480543084047634145741809318651308834093336287653228940127818416254547620354404181105179846472490962895115183789250183168000.00000000
0.07500000, 0.01500000, -1740311933580540137340861446063143845618123958371158406474861651032797811846256690058044688051634542822969369037294000280951067359973500514722416455567317927427014948373580502375271098623289380614652165849415029685437432825118720.00000000
0.08500000, 0.01500000, 1975333295464753775635432438725390017342774617587079242395510290182935415035432195841332062457357609707040583389111736188181246865200600959971788536674291394849391890004533952133856572812713139508329247728344600679876910118862848.00000000
0.09500000, 0.01500000, -2238845871333984934284650076486580302442776827179638187731891189264393850151097262654476797875390308269398171546490411399635452801227418124206798654190984354291320335217189710361289709513235157069141962626110842328723306449993728.00000000
0.10500000, 0.01500000, 2541885757334111874372382216391351524150484546715459378707837553872948110779351618944151661858594353690950805176689235869373146573895874979257576549012581030819004908130498968760296477632588061630225756339441509538908135676182528.00000000
0.11500000, 0.01500000, -2863028678734937273645242704140147107499877453018259370630372084089623687321172525906753065146601941572400617690060397390419620332721100634362223104484891785312801887721321771061742880461676824777518710259468447371439659112464384.00000000
0.12500000, 0.01500000, 3163818851034739705060017648079186685809479572417245104878215899618154771170264762597967703296402839308900090794321132299646349492320601234052392486291943580460022103049927659610824237223240628258471602330640976508002454286106624.00000000