TITLE = "Linear advection equation"
VARIABLES = "x", "y", "sol"
ZONE STRANDID=1, SOLUTIONTIME=1.95, I=100, J=100, DATAPACKING=POINT
0.00500000, 0.00500000, 20735773628442785623580476424579149502444843951984796157704481932202263879649629044736.00000000
0.01500000, 0.00500000, -29925902509495766749887871902002557596835928518773254342229407829567725146482816319488.00000000
0.02500000, 0.00500000, 35334037074268660336096371669607012074426269786010114177498242062019458103371737595904.00000000
0.03500000, 0.00500000, -43849048461848047982811200787873158968683106076824207787495612938812116235512159666176.00000000
0.04500000, 0.00500000, 58219695634801368629739003523461190224245904909789170104616185926665211509415297941504.00000000
0.05500000, 0.00500000, -73571268653609880311476815413982719193845862234414054970587592550153739632426291822592.00000000
0.06500000, 0.00500000, 91486381488274064913256026428021610145993812016801856742043202534821630347715318644736.00000000
0.07500000, 0.00500000, -110488168186346912402908740658634639173588214872645618949491814368073606102602651533312.00000000
0.08500000, 0.00500000, 128777077739732032626353217909418045771144870408562400248523945866488730089887912427520.00000000
0.09500000, 0.00500000, -144719458273889333827136287410918238622887668046575937219534062709211992803353370296320.00000000
0.10500000, 0.00500000, 158176527966735523274939056595494139273197011714105420551033251723247981401913660801024.00000000
0.11500000, 0.00500000, -172106711430862308781210435135926998836674919319292845097835329766755025043062297460736.00000000
0.12500000, 0.00500000, 191345530052307942867470194394222466803010746919374836392849647273164944141963438850048.00000000
0.13500000, 0.00500000, -221088928503947564305066145340536390553395678073851282241912184487246020636674342518784.00000000
0.14500000, 0.00500000, 266978030654623918222358369160183970756318290945012281572001987142589378680449287585792.00000000
0.15500000, 0.00500000, -337196728741853587367762496297356109913317882202309704235607588839290837416570511163392.00000000
0.16500000, 0.00500000, 445466040122805488770785164217344070526710563703092322153933563554487261141304174706688.00000000
0.17500000, 0.00500000, -612567665289186469906088571150968790000699811002394048763251387566680393824941228687360.00000000
0.18500000, 0.00500000, 872766705354309483926855746593609606325540013039625795697532927115977845281487446867968.00000000
0.19500000, 0.00500000, -1281334064293826257226997639546593581157344043042016136364208307980118494420559193964544.00000000
0.20500000, 0.00500000, 1919517757053136918882187303777860566533255334153966295837046348048359101065685995880448.00000000
0.21500000, 0.00500000, -2801587518964914554739537540785079999491644071215854765868149294474044660657384620818432.00000000
0.22500000, 0.00500000, 4318077200417968276255572454235144290134902302426010085875460124601464006450505502949376.00000000
0.23500000, 0.00500000, -6218584267338952123342157696359405302409312595856717573580301081653010896366455874387968.00000000
0.24500000, 0.00500000, 8593250820702260454974302468623858612604817214870809174719808764038806791990669943504896.00000000
0.25500000, 0.00500000, -11470102226191794893574889286259327142461889599859800389852817080973042409455405756317696.00000000
0.26500000, 0.00500000, 14933908223764003110377025506839494430147413304575453090955956660564929771737147917729792.00000000
0.27500000, 0.00500000, -19221941907262023105201371951288434859572316003749560270993922495443654304941982242308096.00000000
0.28500000, 0.00500000, 24694800847090766871645469276402586082986253392953867345614916304939336741217415360151552.00000000
0.29500000, 0.00500000, -31793698532343221827063881268811803921198298968386414157709563864183891276255111470383104.00000000
0.30500000, 0.00500000, 40876424538349105384959353408291704339754861114768449042006832521309478448848098063024128.00000000
0.31500000, 0.00500000, -51793224534645917884418150752295677700493493120314776163594443403420554497578172168536064.00000000
0.32500000, 0.00500000, 63927946806358656137186732777007260371071412634134492166728456609222682233318161634033664.00000000
0.33500000, 0.00500000, -76114557719893016927148412727440984383997340364998457340655324241240453983776604961112064.00000000
0.34500000, 0.00500000, 87110368092233976730582899522131696758310111430155255969052629397485612342004867164798976.00000000
0.35500000, 0.00500000, -96458233387461076445901065531170524740583764862813959477083466288120426603478033232822272.00000000
0.36500000, 0.00500000, 104331559841254372812891906176620037223544862157425302847135949353261603682302661991858176.00000000
0.37500000, 0.00500000, -110723027352175563030691795957309199103176000954584174874232096473150716620635160581242880.00000000
0.38500000, 0.00500000, 114918145891871767978301176243115786936341385864979416629843367657050785473588076574932992.00000000
0.39500000, 0.00500000, -116121413479044336706146014753503163582982619977730627791787822740421094335813882216448000.00000000
0.40500000, 0.00500000, 114276569200996693152140469345408947242703630538812473288732434716637172692826955421057024.00000000
0.41500000, 0.00500000, -110018441459848165545941785714448293027913980275080861781938062278021087543853950410162176.00000000
0.42500000, 0.00500000, 103828503020462442723174619849310388556265617183497381491028073176724802123798112177750016.00000000
0.43500000, 0.00500000, -95927846803846344372269072872564238142461037213577093274478936612635933170032064780566528.00000000
0.44500000, 0.00500000, 86793703866445931001850050713328946778411726684290043486461461280449527403672533595062272.00000000
0.45500000, 0.00500000, -76921759765285557513599982339333720384437886580391522430379112406458556910089502168449024.00000000
0.46500000, 0.00500000, 66280078378322641292386896710599179010307960809335760743917805743286030302321247353044992.00000000
0.47500000, 0.00500000, -54168784534350488595408210820354942536034805726680815136506315440365425572637750388064256.00000000
0.48500000, 0.00500000, 39952574053337625677317740417276681194659772395658147833287059805332547562773929032417280.00000000
0.49500000, 0.00500000, -23815122453485284578009820980420630213953531449150412684802099826429489245156610813198336.00000000
0.50500000, 0.00500000, 6625359002694210733743585031865824488607566399441964583403651411648930408239674515521536.00000000
0.51500000, 0.00500000, 10597677374184140345691080225706658383265936606272938642594755378665952573251474432196608.00000000
0.52500000, 0.00500000, -26898261742937603066924417867556176709385568474286698555544306683268372342876017484890112.00000000
0.53500000, 0.00500000, 41294015518618541604047394776911225280139259498287502410059670841714908627560544568606720.00000000
0.54500000, 0.00500000, -53022732550828665225044494489002026577967756195212113227011362922550019609319217565794304.00000000
0.55500000, 0.00500000, 61790776968379318762144319518337196145281723253518568645731899730620395876415766322479104.00000000
0.56500000, 0.00500000, -67315817446223365071001139712395431078860294059990562471509059691310513166130330097156096.00000000
0.57500000, 0.00500000, 69049780088345426327085650330615052948399147158576346403345869110784230206649589181710336.00000000
0.58500000, 0.00500000, -66868527197702687136738137553213472115668575152879035811170394719525950095928500527562752.00000000
0.59500000, 0.00500000, 61699507437622615598182364511054625915801213889516523948249328561145852702390758896828416.00000000
0.60500000, 0.00500000, -54974731423428785693962200837166847300720397333049866290983326981720901584797904817618944.00000000
0.61500000, 0.00500000, 47630011567067028120329252708195911749179384805996886016458921350999475492304584913715200.00000000
0.62500000, 0.00500000, -39987549323483247053722002866614761252943867832393331136572970688379430459345161007661056.00000000
0.63500000, 0.00500000, 32304699696591483079073810723859523637532736711647264979610213791055190105336318940676096.00000000
0.64500000, 0.00500000, -25012109066128501345898136949726214111865644996962047211763291945324775500961604003954688.00000000
0.65500000, 0.00500000, 18467230101080655862195289982042828656177599767919547330116418349376799949904968719269888.00000000
0.66500000, 0.00500000, -12828063199107084954287464102598551357053001991305213284915417289496797081145801185427456.00000000
0.67500000, 0.00500000, 8160432173377892069117466909931202114490248883759441752269708858556644508111651718823936.00000000
0.68500000, 0.00500000, -4466683114440661478965426995428058196281066859521097906606535052190563639402323760906240.00000000
0.69500000, 0.00500000, 1686575233361526528672933063707403369710566636536096537224151544842624053736933389500416.00000000
0.70500000, 0.00500000, 291920023188697755053809855878607484746987428188096169216092251669035280297645010059264.00000000
0.71500000, 0.00500000, -1620883553903344665290707285924177930031157917485293325460102307260267284648170711154688.00000000
0.72500000, 0.00500000, 2457830865477569304191728224997401536841098827283941426898941256735432429337923484123136.00000000
0.73500000, 0.00500000, -2935235922743093056539436166484662298236464515047671016092079747486756377557319211286528.00000000
0.74500000, 0.00500000, 3151046367328737949511360664248550041754594471784334219163043295430964254427529613410304.00000000
0.75500000, 0.00500000, -3171931154606283551604400730929028788716016377720788700677206224801858966773913700270080.00000000
0.76500000, 0.00500000, 3043113059896750108490851863981658803973251108537008109766647161861418179615793600266240.00000000
0.77500000, 0.00500000, -2800902098738503417931152841917072160346248511743963522485794308030861966017625017286656.00000000
0.78500000, 0.00500000, 2482203621908861506486793181593771290025740618308620598487647279262967667692988633448448.00000000
0.79500000, 0.00500000, -2075674495420921565448641812401916184090737326257514392555698593924657211721360397565952.00000000
0.80500000, 0.00500000, 1656892724174510139734112224300937528428001857171853445370895480829586870799746371420160.00000000
0.81500000, 0.00500000, -1344724009846190800509913936135640036657996928245043747648735660243487822921339162853376.00000000
0.82500000, 0.00500000, 1068401826340473479916643335945269383451492718166563647638706389005010462331235557441536.00000000
0.83500000, 0.00500000, -793891850583443101632622339979618469816642878473883276112298063300470645506737216421888.00000000
0.84500000, 0.00500000, 567490393124587014385503805384154666884705154095148570484593042802418108441320367325184.00000000
0.85500000, 0.00500000, -387132862503842748776666156292176253252938687760911230385923622479263085947756994363392.00000000
0.86500000, 0.00500000, 255939865608401736667960174184946280192653842566742698033957440825918496809007777316864.00000000
0.87500000, 0.00500000, -167395102174668147926581058581861278669668531374800082244688598665232644267576033017856.00000000
0.88500000, 0.00500000, 106570585973150516671092504097175484630360152736697215717979268769326263026391703355392.00000000
0.89500000, 0.00500000, -65569180616250897297655557145147107640312346293560622577492261911267124448652722962432.00000000
0.90500000, 0.00500000, 37000928784176246408364311136620470847853646534621156554379090744637392198395699920896.00000000
0.91500000, 0.00500000, -20163918791303378326033470888470124299091967324799739493085197268353927421702568935424.00000000
0.92500000, 0.00500000, 12763313044941621716042473656164203545120365148248336453825068723953162052450899722240.00000000
0.93500000, 0.00500000, -8117216916486855792305726230269916915526791628487813880649539279474691241581335281664.00000000
0.94500000, 0.00500000, 6177257661467483164377920687993596225776772159977324681079982257049004353280221904896.00000000
0.95500000, 0.00500000, -5143523578891881621045594459485054630899016213267453026297544034477547185901976682496.00000000
0.96500000, 0.00500000, 6407040129993297567297835457407543492774987119196750867995032753422872964977689362432.00000000
0.97500000, 0.00500000, -6769721588013506718937611978172562934732367247938089661649706316707629120120095244288.00000000
0.98500000, 0.00500000, 13158560958860324706251423778119399005801252466216491153327872629230892984331231297536.00000000
0.99500000, 0.00500000, -15690159866424390286927052409205600600445979368076519660617301725333611824118543417344.00000000
0.00500000, 0.01500000, -32945881930098436451006530358922319903085338343141149665570527467841875874728225275904.00000000
0.01500000, 0.01500000, 42298169580459728951189310954502956703280145586432349512120749437590745937552131227648.00000000
0.02500000, 0.01500000, -50988041658481496087074913580680864983266266515427634173489329023469166810323623084032.00000000
0.03500000, 0.01500000, 65284825561158178589101615115977395987671912392067813643124146262494612828723750109184.00000000
0.04500000, 0.01500000, -82453782457884787720406911053567187816970597336610612104225902212021719042567165706240.00000000
0.05500000, 0.01500000, 103233884715465180794662685670896937560204641122240559882428868696037120104754428510208.00000000
0.06500000, 0.01500000, -126016758838524499107120156014854731461965876766615820726623642599049223166437139415040.00000000
0.07500000, 0.01500000, 147781582874488779200042479989622414253548846046660054027636902520429268899165942841344.00000000
0.08500000, 0.01500000, -166355139279969457300874897868297712588468898037470012286794428974348301814529641152512.00000000
0.09500000, 0.01500000, 181083697746117430103456840999083339573024314668577688599630520014319267614200365580288.00000000
0.10500000, 0.01500000, -193041563270559194633259127404221684983935930201214943729847136794619986491033954287616.00000000
0.11500000, 0.01500000, 205323135789111891306732427716245763747776274498547739779941967873808301558487756832768.00000000
0.12500000, 0.01500000, -221726256352321721672217391836944598614173308687898329572251940328369833357670615089152.00000000
0.13500000, 0.01500000, 245631395993485314529346857768331633654556742708791165084703925196423099265048496832512.00000000
0.14500000, 0.01500000, -280242492880197897979700699049108211615183850686963528839733590072347177035942353436672.00000000
0.15500000, 0.01500000, 330814121813587790897865412795398450471245980569473442306310195806801806478375477313536.00000000
0.16500000, 0.01500000, -406797417505309538739551819553300953614086513354552075042382041063449371738731616141312.00000000
0.17500000, 0.01500000, 523536597873249392517235166012773393295405573042742717258032384745902149097789669244928.00000000
0.18500000, 0.01500000, -708843556640904436553599939236779403987500700267111393775432808946697148641805196066816.00000000
0.19500000, 0.01500000, 1011473873276135110797514884816560317955272625074541838129692940453188192960071228981248.00000000
0.20500000, 0.01500000, -1501730206753605217083507586203152790142101681776545661458574695034709651574443470749696.00000000
0.21500000, 0.01500000, 2254319629144020565330823107545026850713135954840599118796516368740339984857148319334400.00000000
0.22500000, 0.01500000, -3318040604579981207268694048080169872528012162430185557939860284993700063181756423995392.00000000
0.23500000, 0.01500000, 4711158840118950902775548390482453404966811118061986318223948648042567174141739630854144.00000000
0.24500000, 0.01500000, -6463214687264690684986274590886775827802364443312837376769422681296929244775555648192512.00000000
0.25500000, 0.01500000, 8671220937816473536619193507152704503529411431764779399682476064576431181022873490817024.00000000
0.26500000, 0.01500000, -11502028746886635924964411665563168322552754751886571616481583772873397489400807944093696.00000000
0.27500000, 0.01500000, 15184916878145787292357370739332760715203471708225906079412087438016486918229755523235840.00000000
0.28500000, 0.01500000, -19977762260709210267788462095180128631157238655173398256977988185019434496938125966704640.00000000
0.29500000, 0.01500000, 26140887886123646119659041185600832293408406373856416288999144318567298972564003051536384.00000000
0.30500000, 0.01500000, -33784742967678087493672529128415995745035806448334545065415105375537189189370965049475072.00000000
0.31500000, 0.01500000, 42710016401261636363894086922422579818743457842593446329454970176667063612924343953129472.00000000
0.32500000, 0.01500000, -52367878985839166106343973742611693611234250757940083648567335222189692357554795601461248.00000000
0.33500000, 0.01500000, 61905170777401942479211794057145191010614781512044478462483244017431413372302684109930496.00000000
0.34500000, 0.01500000, -70632673456692214209572439861207859976129084485981788569559974585389122233703926341828608.00000000
0.35500000, 0.01500000, 78379002923801331835344001788795768241890514765621531441473358104865016366221760491683840.00000000
0.36500000, 0.01500000, -85187192213422399578964756681589927361596102002364529472085765639165699127886946437693440.00000000
0.37500000, 0.01500000, 90729681001683091956381209693174263760184103459931153671525675782184637451773503904677888.00000000
0.38500000, 0.01500000, -94323981029728449298082329632880348924113966816135406464583060304899976521178715181285376.00000000
0.39500000, 0.01500000, 95569112040239992383315432470322842309383657460903164434064789073161870707627293367336960.00000000
0.40500000, 0.01500000, -94707003087614974473341683698568969512933882741255431727727025343057772753202597263835136.00000000
0.41500000, 0.01500000, 92182531641286968432015292565324818695515265810383104550255099482558225167077414786826240.00000000
0.42500000, 0.01500000, -88073683935054410972888639961134680474424591765323207382237713349789193887655424251920384.00000000
0.43500000, 0.01500000, 82346137241543865356246717176039526514611161417059555442684182948191820215731115968692224.00000000
0.44500000, 0.01500000, -75241691270032660412566915684423333002790431727590820755913088070855743450229827885334528.00000000
0.45500000, 0.01500000, 66980579787150244935726239253116441529627965409266815590021006099264757210625945622282240.00000000
0.46500000, 0.01500000, -57272579810859310793170039461680070485783818587580629449422915445409374318397295257714688.00000000
0.47500000, 0.01500000, 45554225263230364509455631177918004419135040089571698128454386923557883626328730481197056.00000000
0.48500000, 0.01500000, -31735174917611140460795564682866736218946376704979346927433277111662218241389916680355840.00000000
0.49500000, 0.01500000, 16439119900695216781966660957012867765544132908313006642381105955169789711018594974826496.00000000
0.50500000, 0.01500000, -610346711657885766013659906679864428179908130542509636538741290182384502777436811821056.00000000
0.51500000, 0.01500000, -14807268683418715100626634005699375754939411813703408643502895244906292583148991939608576.00000000
0.52500000, 0.01500000, 28881338087218955288720526217740067114264965845422846511556485246059931279294330319142912.00000000
0.53500000, 0.01500000, -40791025914247951267040940846719842134117786269824714237558784026636851399315217543331840.00000000
0.54500000, 0.01500000, 50080711472215845285530482609401794215950394994241763862023824640795015949864770230812672.00000000
0.55500000, 0.01500000, -56506335879765400989133158887081757743091550655392473641076067868225903000951731594985472.00000000
0.56500000, 0.01500000, 59622370006641344599038896014600474743887108712767270720976881979984733456630601645817856.00000000
0.57500000, 0.01500000, -59066963585582682758204961495121505138205496395587616034957515182178538957064815427715072.00000000
0.58500000, 0.01500000, 55333591882553680227932505577323266718399664533646713437558224857832424605007762486722560.00000000
0.59500000, 0.01500000, -49731438287621554880547934868927998747350833368188337934700197277563420664190819595452416.00000000
0.60500000, 0.01500000, 43426338772396914291491490719204261814016551120184578752383877852505036062275170102935552.00000000
0.61500000, 0.01500000, -36893766828384929066605830098783048290051886246895062587200422652515062156627089735811072.00000000
0.62500000, 0.01500000, 30280043502060467512973461320511980502675749751021832758005904341849709385803168881836032.00000000
0.63500000, 0.01500000, -23834205644972882885497640474365102892386399149120468667739686657642284197751449928597504.00000000
0.64500000, 0.01500000, 17886879909218092894402260054170464461048090690345319509269618657311648978507647269470208.00000000
0.65500000, 0.01500000, -12671765866718470568111261663424538618808276952212912522798561534046079484693603162259456.00000000
0.66500000, 0.01500000, 8299087516821794522387874353251131094573200656426656330471925184725135627970834088329216.00000000
0.67500000, 0.01500000, -4793027450398523600257915271097331186617009581128227830745381625459122469299602302435328.00000000
0.68500000, 0.01500000, 2116355811181835531566767179825029266053010826196777145500114043421715213713226202087424.00000000
0.69500000, 0.01500000, -183425146552368765693684628574552309512816111513787339004563694832492736077864990932992.00000000
0.70500000, 0.01500000, -1127595258745319138621820236085744921696066305322555048122765673879212102485384080916480.00000000
0.71500000, 0.01500000, 1949479581318423696012249441987100386717631429999394660928786629246892892332798915903488.00000000
0.72500000, 0.01500000, -2405988192968120088320154766371930275812466486288623481863680003258650060899156190298112.00000000
0.73500000, 0.01500000, 2605646624469311136314191578276715412502052889719286815717323015145222812403927481319424.00000000
0.74500000, 0.01500000, -2631381298766100612987939169325032496236174164338393276376111179126983881646484687421440.00000000
0.75500000, 0.01500000, 2530470666911582509157149883330760742071098401332082534969869849471352920189469726867456.00000000
0.76500000, 0.01500000, -2330118417181024387750026406653394320792955440500607826778193429826151595269392250699776.00000000
0.77500000, 0.01500000, 2069393184154363543294782738463511185182623701429856822009747127120822775416763191394304.00000000
0.78500000, 0.01500000, -1795890064952674935397800995791270648514639798421726900545193996722298154883417242599424.00000000
0.79500000, 0.01500000, 1402835607154958683484259323864109968907919889841042675619794286384431491271085583761408.00000000
0.80500000, 0.01500000, -787401748837186016281880106490287783035451151182836050140487061605616092529720511430656.00000000
0.81500000, 0.01500000, 684992308643362393103117044749014190564915357714871633533722579494291478538085363351552.00000000
0.82500000, 0.01500000, -725841481498769259984792258904024774978654021780962422367164230654900649251685191909376.00000000
0.83500000, 0.01500000, 535441753463579032579636034209893606443327520442630111619907439331550197312617424355328.00000000
0.84500000, 0.01500000, -372938708494037409544903600542047735354690955480894504629522139877263277810564890361856.00000000
0.85500000, 0.01500000, 242740987849069293535734721847321046295213892435994283886179430934081275593807789817856.00000000
0.86500000, 0.01500000, -160080608004508657739813665165286653731817293521166509258687710493031215099501508296704.00000000
0.87500000, 0.01500000, 105411434519229940781485246207327363768889030698989320873259502344226991576721905418240.00000000
0.88500000, 0.01500000, -65299236729750121275952954747813496149255781822856324074586177642618787388313028263936.00000000
0.89500000, 0.01500000, 39689223543684699582681229901229267429515541799577843840393371316815107625484428509184.00000000
0.90500000, 0.01500000, -21344093398414596540791957728293541385827066573132209410438637128946447264412629729280.00000000
0.91500000, 0.01500000, 13658548356714315315567868845004528028677215989817097499605714991138391402529595326464.00000000
0.92500000, 0.01500000, -8628688839368458925097321850311692821428171364092926039897644257473093061141837381632.00000000
0.93500000, 0.01500000, 6551523544814526797376712972997553525782394310480569960981490062327413123575843913728.00000000
0.94500000, 0.01500000, -6395425592449650736423495126956445508719854942868931778085982269365069956059196555264.00000000
0.95500000, 0.01500000, 6775145054758617716064208949473086355089127547541658393208639718416598719093792571392.00000000
0.96500000, 0.01500000, -10129418527055372718896975569466328214450667773715212553785224505072510936422975275008.00000000
0.97500000, 0.01500000, 13663844534359500146889273185051156810507422300237080152522690747637552095458085568512.00000000
0.98500000, 0.01500000, -18397097444113340797066736844032703328676146417685909618495822538287700973475239821312.00000000
0.99500000, 0.01500000, 22694867485340458293004059687681094071939743122706426966056500283368563573237219328000.00000000
0.00500000, 0.02500000, 44834383992722257086545091708100178004779980967018733533981529756088782927600021405696.00000000
0.01500000, 0.02500000, -57849400105278215721679437316220492811672251407434710914977173965977527807097647923200.00000000
0.02500000, 0.02500000, 73172655157768929719308288341531018425067445103456294065984182645297771328325218729984.00000000
0.03500000, 0.02500000, -92303597237267839340537427772346952551167455144384864786343196127139664360969124970496.00000000
0.04500000, 0.02500000, 115375462331436313779616812626348051396646947324569734497254809191160921890695703166976.00000000
0.05500000, 0.02500000, -141570664159485442960490187083979470771125317203861679737723171188530529077066549166080.00000000
0.06500000, 0.02500000, 167867721104864796187848815240083595826248435533693580108923254489714469241118621958144.00000000
0.07500000, 0.02500000, -191043035379635596658582584278655740243734495749758192792726805820287695661827390177280.00000000
0.08500000, 0.02500000, 209798013191666617032870944529739865738065526370644354291444642220275182812555584208896.00000000
0.09500000, 0.02500000, -223934184259093489086312502743887556982238488279747493566634849829448213698417696702464.00000000
0.10500000, 0.02500000, 234996495775841940742945457818267134549277323669539159914986166859666860491277722451968.00000000
0.11500000, 0.02500000, -246031483783818584384610835393466908107553393687698745503334894101760121377053739057152.00000000
0.12500000, 0.02500000, 259645019334072436014652011782231252250865513977674497694053647472712929954026447962112.00000000
0.13500000, 0.02500000, -277047730045213315495685716156730671925140455422983804266988138477367293206063778627584.00000000
0.14500000, 0.02500000, 299319055769572318623208917173458243765409087296115451057444946282346516794117248253952.00000000
0.15500000, 0.02500000, -329985761970147821693528260195103614076825932876777325282349653316338124020606906138624.00000000
0.16500000, 0.02500000, 376393781297474398633702915079703882052496715854184763767108219920866377235899692875776.00000000
0.17500000, 0.02500000, -451221093353235871113750288181384140384075105776695275054159705194970645883371302944768.00000000
0.18500000, 0.02500000, 578610356701869383775627384695360301575628231223943497072310020730951148141955388538880.00000000
0.19500000, 0.02500000, -800321679191136213299786497788653036885158733272665142869951796453682416979714921988096.00000000
0.20500000, 0.02500000, 1169173527220999183169390583396448529044110227581717703627160348611512647021731770269696.00000000
0.21500000, 0.02500000, -1728474640447623053213510955085533861715049567195278863215461246617997933328241843503104.00000000
0.22500000, 0.02500000, 2500158576689049048908573334065619494456487214877519606076590340484878049883328518029312.00000000
0.23500000, 0.02500000, -3504576929316220950740625126777823984393749177512857620242177830642863588165472384712704.00000000
0.24500000, 0.02500000, 4806495827787730537637643652169735370141173620393275315532035509300376738201839444426752.00000000
0.25500000, 0.02500000, -6538893051872977189021931972992339888308323237579535695642257528446899659620758839099392.00000000
0.26500000, 0.02500000, 8871125452424950308597426904178859529641111927535555947207514055703732584099059005915136.00000000
0.27500000, 0.02500000, -11977734493861819112400291804897433090221167530571920727640552937699034370526349147242496.00000000
0.28500000, 0.02500000, 16034609123218400157362642894827824907372272497089273989448181483813215106956306205900800.00000000
0.29500000, 0.02500000, -21190827986450748694016693852239926139816971184665099502158838348041076572592343353393152.00000000
0.30500000, 0.02500000, 27463325452131683546813380340476441595800914770778955492212692995942901109247998404067328.00000000
0.31500000, 0.02500000, -34628780549942914269825116193369911370753467578516471376756479122127831127270190496088064.00000000
0.32500000, 0.02500000, 42203572114524634546668228516725642270227787882533166711801861169794480973052542764187648.00000000
0.33500000, 0.02500000, -49649047517867233145994577727523917198502232413147466746340613023541740414570269429989376.00000000
0.34500000, 0.02500000, 56698427301818249011415568723583084640972752577767591086193747782774876811781525523660800.00000000
0.35500000, 0.02500000, -63328544029242443239625532929401566262805819398377953676907281139691748895624450008940544.00000000
0.36500000, 0.02500000, 69368685371314561715708950709392251227830389817049738390918867417955400149026631285997568.00000000
0.37500000, 0.02500000, -74326254374307739163692458652759251294679551637947261347807769502410602128562482092965888.00000000
0.38500000, 0.02500000, 77671087439196384407929671059479569782006941647045299283793159211008965084541504962166784.00000000
0.39500000, 0.02500000, -79251843120721458184188432034636843098340430392581824515621219856726451980079731390283776.00000000
0.40500000, 0.02500000, 79331461058851254049495544221896109216944785952836934424392127177721445626083123457425408.00000000
0.41500000, 0.02500000, -78102829865156540898899386537056811126701249199855059828459654584054288024561912972836864.00000000
0.42500000, 0.02500000, 75389521124294155613401477683572090914829077279468973512382058938424058074724714510548992.00000000
0.43500000, 0.02500000, -71003940869949780693953861160164997078148363123882759100287454177349043814018816015335424.00000000