# vtk DataFile Version 3.0
Advection Initial Condition
ASCII
DATASET UNSTRUCTURED_GRID
POINTS 142 float
0 0 0
1 0 0
1 1 0
0 1 0
0.1 0 0
0.2 0 0
0.3 0 0
0.4 0 0
0.5 0 0
0.6 0 0
0.7 0 0
0.8 0 0
0.9 0 0
1 0.1 0
1 0.2 0
1 0.3 0
1 0.4 0
1 0.5 0
1 0.6 0
1 0.7 0
1 0.8 0
1 0.9 0
0.9 1 0
0.8 1 0
0.7 1 0
0.6 1 0
0.5 1 0
0.4 1 0
0.3 1 0
0.2 1 0
0.1 1 0
0 0.9 0
0 0.8 0
0 0.7 0
0 0.6 0
0 0.5 0
0 0.4 0
0 0.3 0
0 0.2 0
0 0.1 0
0.45 0.913397 0
0.0923679 0.460574 0
0.55 0.0866025 0
0.915222 0.54684 0
0.65 0.913397 0
0.0888543 0.65092 0
0.913397 0.35 0
0.34753 0.0819075 0
0.91037 0.758673 0
0.250817 0.913869 0
0.745979 0.0795923 0
0.0866025 0.25 0
0.0905697 0.840817 0
0.849576 0.915323 0
0.150424 0.0846772 0
0.91705 0.150593 0
0.350136 0.913476 0
0.400023 0.826808 0
0.500004 0.826797 0
0.450004 0.740195 0
0.550001 0.740193 0
0.500001 0.65359 0
0.399666 0.653962 0
0.449289 0.567413 0
0.549882 0.567058 0
0.499862 0.480468 0
0.599957 0.48041 0
0.399203 0.480833 0
0.449844 0.393871 0
0.350801 0.394426 0
0.649973 0.567003 0
0.704454 0.483661 0
0.650735 0.394333 0
0.298942 0.480782 0
0.400108 0.307302 0
0.3 0.30718 0
0.499992 0.307215 0
0.45 0.220577 0
0.751612 0.57013 0
0.700264 0.654116 0
0.753536 0.398725 0
0.7 0.30718 0
0.8 0.65359 0
0.747143 0.738605 0
0.55 0.220577 0
0.810981 0.304754 0
0.748774 0.221563 0
0.300163 0.826889 0
0.199409 0.829698 0
0.249929 0.741058 0
0.149494 0.74316 0
0.196743 0.653486 0
0.147506 0.559689 0
0.24614 0.564759 0
0.200613 0.473884 0
0.162958 0.380389 0
0.348873 0.567256 0
0.600001 0.826795 0
0.899418 0.652898 0
0.65 0.0866025 0
0.915774 0.449473 0
0.816796 0.489982 0
0.44985 0.0839346 0
0.550001 0.913398 0
0.247189 0.0840733 0
0.185634 0.179404 0
0.913247 0.250891 0
0.60002 0.653692 0
0.749929 0.913718 0
0.349201 0.228833 0
0.550065 0.393913 0
0.649572 0.740033 0
0.699441 0.826557 0
0.600132 0.307299 0
0.815041 0.818302 0
0.65 0.220577 0
0.349964 0.740783 0
0.298552 0.653551 0
0.153068 0.917872 0
0.916754 0.850872 0
0.0829663 0.149888 0
0.189058 0.294084 0
0.844093 0.0938543 0
0.250395 0.388457 0
0.079728 0.349351 0
0.838053 0.2 0
0.840693 0.399279 0
0.289826 0.1634 0
0.0657836 0.74698 0
0.7 0.15359 0
0.6 0.15359 0
0.5 0.15359 0
0.397735 0.155374 0
0.832596 0.730144 0
0.0652563 0.55 0
0.83661 0.582688 0
0.261387 0.235989 0
0.926795 0.926795 0
0.0732051 0.926795 0
0.926795 0.0732051 0
0.0732051 0.0732051 0
0.77538 0.14972 0
CELLS 242 968
3 71 80 101
3 121 75 123
3 114 48 119
3 105 51 120
3 51 105 121
3 48 114 133
3 95 121 123
3 46 85 106
3 51 121 124
3 92 41 94
3 88 52 90
3 121 95 124
3 101 80 126
3 106 85 125
3 78 71 101
3 41 92 134
3 90 52 128
3 90 45 91
3 91 45 92
3 85 46 126
3 94 41 95
3 53 114 119
3 54 105 120
3 82 98 133
3 52 88 118
3 122 55 125
3 85 86 125
3 127 47 132
3 67 63 96
3 91 93 117
3 98 82 135
3 73 93 94
3 98 48 133
3 93 96 117
3 63 62 96
3 73 67 96
3 91 92 93
3 122 125 141
3 45 90 128
3 73 94 123
3 109 127 132
3 75 121 136
3 93 92 94
3 93 73 96
3 40 56 57
3 40 27 56
3 26 27 40
3 87 49 88
3 35 36 41
3 97 44 103
3 43 18 98
3 44 25 103
3 56 49 87
3 87 88 89
3 42 9 99
3 26 40 103
3 28 49 56
3 17 18 43
3 8 9 42
3 40 57 58
3 27 28 56
3 25 26 103
3 17 43 100
3 47 7 102
3 8 42 102
3 46 16 100
3 89 88 90
3 19 48 98
3 40 58 103
3 44 97 112
3 7 8 102
3 10 50 99
3 16 17 100
3 89 90 91
3 18 19 98
3 58 97 103
3 9 10 99
3 28 29 49
3 108 112 114
3 19 20 48
3 37 38 51
3 100 43 101
3 108 44 112
3 10 11 50
3 58 57 59
3 22 23 53
3 6 7 47
3 69 67 73
3 31 32 52
3 15 16 46
3 61 59 62
3 65 63 67
3 57 56 87
3 6 47 104
3 79 83 111
3 33 34 45
3 65 67 68
3 68 74 76
3 15 46 106
3 64 66 70
3 24 25 44
3 79 82 83
3 14 15 106
3 70 71 78
3 70 78 79
3 61 62 63
3 5 6 104
3 70 66 71
3 64 63 65
3 64 65 66
3 76 74 77
3 70 79 107
3 61 63 64
3 76 77 84
3 58 60 97
3 61 64 107
3 64 70 107
3 13 14 55
3 77 74 109
3 97 60 111
3 71 72 80
3 68 69 74
3 80 81 85
3 65 68 110
3 60 59 61
3 4 5 54
3 71 66 72
3 66 65 110
3 58 59 60
3 60 61 107
3 53 23 108
3 68 67 69
3 23 24 108
3 55 14 106
3 68 76 110
3 60 107 111
3 79 78 82
3 80 72 81
3 74 75 109
3 54 5 104
3 72 66 110
3 85 81 86
3 24 44 108
3 74 69 75
3 111 83 112
3 54 104 105
3 107 79 111
3 97 111 112
3 110 76 113
3 87 89 116
3 72 110 113
3 112 83 114
3 76 84 113
3 113 84 115
3 81 72 113
3 81 113 115
3 59 57 116
3 53 108 114
3 62 59 116
3 86 81 115
3 57 87 116
3 94 95 123
3 96 62 117
3 89 91 117
3 62 116 117
3 95 41 124
3 116 89 117
3 88 49 118
3 29 30 118
3 20 21 119
3 38 39 120
3 11 12 122
3 75 69 123
3 41 36 124
3 37 51 124
3 92 45 134
3 100 101 126
3 80 85 126
3 49 29 118
3 48 20 119
3 51 38 120
3 50 11 122
3 104 47 127
3 69 73 123
3 52 32 128
3 33 45 128
3 114 83 133
3 35 41 134
3 45 34 134
3 43 98 135
3 2 22 137
3 3 31 138
3 21 2 137
3 1 13 139
3 12 1 139
3 0 4 140
3 39 0 140
3 30 3 138
3 36 37 124
3 55 106 125
3 121 105 136
3 46 100 126
3 109 75 136
3 78 101 135
3 105 104 127
3 82 78 135
3 129 115 130
3 47 102 132
3 130 84 131
3 84 77 131
3 115 84 130
3 32 33 128
3 86 115 129
3 42 99 130
3 99 129 130
3 99 50 129
3 42 130 131
3 102 42 131
3 77 109 132
3 131 77 132
3 102 131 132
3 83 82 133
3 34 35 134
3 101 43 135
3 50 122 141
3 118 30 138
3 120 39 140
3 119 21 137
3 122 12 139
3 22 53 137
3 31 52 138
3 13 55 139
3 4 54 140
3 127 109 136
3 52 118 138
3 53 119 137
3 54 120 140
3 55 122 139
3 105 127 136
3 125 86 141
3 86 129 141
3 129 50 141
CELL_TYPES 242
5
5
5
5
5
5
5
5
5
5
5
5
5
5
5
5
5
5
5
5
5
5
5
5
5
5
5
5
5
5
5
5
5
5
5
5
5
5
5
5
5
5
5
5
5
5
5
5
5
5
5
5
5
5
5
5
5
5
5
5
5
5
5
5
5
5
5
5
5
5
5
5
5
5
5
5
5
5
5
5
5
5
5
5
5
5
5
5
5
5
5
5
5
5
5
5
5
5
5
5
5
5
5
5
5
5
5
5
5
5
5
5
5
5
5
5
5
5
5
5
5
5
5
5
5
5
5
5
5
5
5
5
5
5
5
5
5
5
5
5
5
5
5
5
5
5
5
5
5
5
5
5
5
5
5
5
5
5
5
5
5
5
5
5
5
5
5
5
5
5
5
5
5
5
5
5
5
5
5
5
5
5
5
5
5
5
5
5
5
5
5
5
5
5
5
5
5
5
5
5
5
5
5
5
5
5
5
5
5
5
5
5
5
5
5
5
5
5
5
5
5
5
5
5
5
5
5
5
5
5
5
5
5
5
5
5
5
5
5
5
5
5
CELL_DATA 242
SCALARS sol float 1
LOOKUP_TABLE default
0.128058
0.0610505
0.000733169
0.000750919
0.00367476
0.00273196
0.0360691
0.00412166
0.00372189
0.0237065
0.00145647
0.010465
0.0541291
0.0036671
0.135682
0.00843387
0.00086311
0.00839992
0.0144637
0.0117463
0.0235691
0.000402296
0.00039899
0.0109974
0.000465469
0.000434456
0.00925907
0.00866201
0.704856
0.0926578
0.0168617
0.149891
0.00327052
0.223644
0.55875
0.503207
0.0490231
0.00114048
0.0021617
0.141241
0.0237823
0.0355474
0.0628636
0.281756
0.00877116
0.00209464
0.00118979
0.00337066
0.00126896
0.00877447
0.00233345
0.00209552
0.0035657
0.0104267
0.00209553
0.00282866
0.000851076
0.00117317
0.00118979
0.0208593
0.000652756
0.00118979
0.00272521
0.00195274
0.00276263
0.00204974
0.00733414
0.000944156
0.0118442
0.0114873
0.00116006
0.000813561
0.00116281
0.0169309
0.000737954
0.0208604
0.000652973
0.0001966
0.0034032
0.00019372
0.000196672
0.0123754
0.00357417
0.000187798
0.0647062
3.20196e-05
0.000620046
0.473669
3.59763e-05
0.000652973
0.341154
0.923667
0.0114447
0.000782327
0.0802552
0.000665124
0.864147
0.414507
0.000856157
0.709423
0.000652973
0.0574457
0.00019783
0.280013
0.225335
0.580008
0.000189351
0.500856
0.956916
0.92561
0.212552
0.318525
0.758357
0.152108
0.0647094
0.58158
0.562278
3.1539e-05
0.117305
0.0845769
0.246268
0.430146
0.0641539
0.836085
0.261908
3.20196e-05
0.468903
0.864875
0.113969
0.341597
0.000186913
0.620039
0.000196147
0.000185943
0.578825
0.194233
0.0943953
0.173801
0.12069
0.000180143
0.618834
0.0332118
0.000849803
0.228509
0.0352318
0.000728921
0.187308
0.0357036
0.414505
0.03405
0.428635
0.0107239
0.212502
0.112702
0.227222
0.116574
0.0841564
0.00076474
0.193097
0.0462588
0.0353827
0.058573
0.316028
0.0550058
0.185898
0.00788063
0.0779281
0.000764149
3.18407e-05
3.13047e-05
3.13885e-05
3.62675e-05
0.172842
0.00211597
0.000799511
0.00664784
0.0197159
0.0384902
0.00018623
0.000178945
0.000183953
0.000202135
0.00293677
0.250167
0.000175964
0.000728193
0.00879467
0.00246159
0.00176447
0.00924379
3.19552e-06
3.19552e-06
3.19552e-06
3.19552e-06
3.19552e-06
3.19552e-06
3.19552e-06
3.19552e-06
0.00061073
0.000716421
0.0103481
0.00771612
0.0536847
0.0609219
0.0028716
0.0527206
0.0217998
0.00714298
0.0397218
0.0651132
0.0482371
0.000163857
0.0198256
0.00753623
0.00861665
0.00294691
0.0157006
0.00996252
0.0509181
0.0400916
0.0155605
0.0208411
0.000971536
0.0211915
0.000814327
2.44417e-05
2.40201e-05
2.39373e-05
2.77474e-05
2.44936e-05
2.76453e-05
2.41498e-05
2.44936e-05
0.0239528
8.68972e-05
7.56618e-05
7.59507e-05
8.57726e-05
0.0084797
0.00473367
0.00731686
0.00275532
