TITLE = "Linear advection equation"
VARIABLES = "x", "y", "sol"
ZONE STRANDID=1, SOLUTIONTIME=0, I=2, J=2, DATAPACKING=POINT
0.25000000, 0.25000000, 1.00000000
0.25000000, 0.75000000, -1.00000000
0.75000000, 0.25000000, -1.00000000
0.75000000, 0.75000000, 1.00000000
